
 Working directory              : /SCR1/amin/na_cl_standard_1.3.152748-20250724/molpro.KjnoullMOp/
 Global scratch directory       : /SCR1/amin/na_cl_standard_1.3.152748-20250724/molpro.KjnoullMOp/
 Wavefunction directory         : /home/linux3_i1/amin/molpro_calculations/test_molpro_dev/dimers/
 Main file repository           : /SCR1/amin/na_cl_standard_1.3.152748-20250724/molpro.KjnoullMOp/

 id        : kamin

 Nodes     nprocs
 orpheus40    1
 GA implementation: MPI file
 GA implementation (serial work in mppx): MPI file

 Using customized tuning parameters: mindgm=1; mindgv=20; mindgc=4; mindgr=1; noblas=0; minvec=7
 default implementation of scratch files=df  


 Variables initialized (1045), CPU time= 0.01 sec
 memory,200,m
 gprint,orbitals
 
 geometry={
   angstrom;
   na;
   cl, na, 2.36;
 }
 
 
 basis=aug-cc-pVDZ
 
 {df-hf}
 {df-mp2}
 {df-mp2-f12,gem_beta=[1.3];core,mixed}
 Commands initialized (836), CPU time= 0.00 sec, 720 directives.
 Default parameters read. Elapsed time= 0.13 sec

 Checking input...
 Passed
1


                                         ***  PROGRAM SYSTEM MOLPRO  ***
                                       Copyright, TTI GmbH Stuttgart, 2015
                                    Version 2024.3 linked Thu Jul 17 16:02:16 2025


 **********************************************************************************************************************************
 LABEL *                                                                                                                                                                 
  64 bit serial version                                                                  DATE: 24-Jul-25          TIME: 15:08:36  
 **********************************************************************************************************************************

 SHA1:             f8efddab7e9fb8d4eb929e30d491a2212e57de49
 **********************************************************************************************************************************

 Memory per process:       200 MW
 Total memory per node:    200 MW

 GA preallocation disabled
 GA check disabled

 Variable memory set to 200.0 MW



 Turning off symmetry in density fitting calculation
 To re-enable, use 'symmetry,auto'

 SETTING BASIS          =    AUG-CC-PVDZ


 Recomputing integrals since basis changed


 Using spherical harmonics

 Library entry NA     S aug-cc-pVDZ          selected for orbital group  1
 Library entry NA     P aug-cc-pVDZ          selected for orbital group  1
 Library entry NA     D aug-cc-pVDZ          selected for orbital group  1
 Library entry CL     S aug-cc-pVDZ          selected for orbital group  2
 Library entry CL     P aug-cc-pVDZ          selected for orbital group  2
 Library entry CL     D aug-cc-pVDZ          selected for orbital group  2


 PROGRAM * SEWARD (Integral evaluation for generally contracted gaussian basis sets)     Author: Roland Lindh, 1990

 Geometry written to block  1 of record 700

 Orientation using atomic masses  
 Molecule type: Linear
 Rotational constants:       6.5063157      6.5063157      0.0000000 GHz  (calculated with average atomic masses)

 Point group  C1  



 ATOMIC COORDINATES

 NR  ATOM    CHARGE       X              Y              Z

   1  NA     11.00    0.000000000    0.000000000   -2.705404908
   2  CL     17.00    0.000000000    0.000000000    1.754348746

 Bond lengths in Bohr (Angstrom)

 1-2  4.459753654
     ( 2.360000000)

 NUCLEAR CHARGE:                   28
 NUMBER OF PRIMITIVE AOS:         104
 NUMBER OF SYMMETRY AOS:          100
 NUMBER OF CONTRACTIONS:           54   (   54A   )
 NUMBER OF INNER CORE ORBITALS:     2   (    2A   )
 NUMBER OF OUTER CORE ORBITALS:     8   (    8A   )
 NUMBER OF VALENCE ORBITALS:        8   (    8A   )


 NUCLEAR REPULSION ENERGY   41.93056714

 EXTRA SYMMETRY OF AOS IN SYMMETRY 1:   1 1 1 1 1 2 3 1 2 3   1 2 3 1 2 3 1 1 4 2   5 3 1 4 2 5 3 1 1 1   1 1 2 3 1 2 3 1 2 3
                                        1 2 3 1 1 4 2 5 3 1   4 2 5 3

 Eigenvalues of metric

         1 0.154E-02 0.913E-02 0.187E-01 0.310E-01 0.310E-01 0.484E-01 0.509E-01 0.509E-01


 OPERATOR DM      FOR CENTER  0  COORDINATES:    0.000000    0.000000    0.000000


 **********************************************************************************************************************************
 DATASETS  * FILE   NREC   LENGTH (MB)   RECORD NAMES
              1      18       28.95       500      610      700      900      950      970     1000      129      960     1100   
                                          VAR    BASINP    GEOM    SYMINP    ZMAT    AOBASIS   BASIS     P2S    ABASIS      S 
                                         1400     1410     1200     1210     1080     1600     1650     1700   
                                           T        V       H0       H01     AOSYM     SMH    MOLCAS    OPER   

 PROGRAMS   *        TOTAL       INT
 CPU TIMES  *         0.21      0.11
 REAL TIME  *         0.56 SEC
 DISK USED  *        29.28 MB
 **********************************************************************************************************************************


 Program * Restricted Hartree-Fock


 Generating basis AVDZ-JKFIT
  Atom=NA       basis=def2-QZVPP/JKFIT
  Atom=CL       basis=aug-cc-pVDZ/JKFIT
 Number of basis functions:     240

 Coulomb and exchange fitting
 Thresholds for fitting:       THRAO_COUL= 1.0D-15    THRAO_EXCH= 1.0D-13    THRMO= 1.0D-12    THRPROD= 1.0D-12    THRASM= 1.0D-12
                               THR2HLF=    1.0D-12

 Basis set AVDZ-JKFIT loaded. Number of basis functions: 240

 Orbital guess generated from atomic densities. Full valence occupancy:   15
 Using density fitting in orbital guess


 Initial occupancy:  14

 NELEC=   28   SYM=1   MS2= 0   THRE=1.0D-08   THRD=3.2D-06   THRG=3.2D-06  HFMA2=F  DIIS_START=2   DIIS_MAX=10   DIIS_INCORE=F

 Level shifts:    0.00 (CLOSED)    0.00 (OPEN)    0.30 (GAP_MIN)

 ITER           ETOT              DE          GRAD        DDIFF     DIIS  NEXP   TIME(IT)  TIME(TOT)  DIAG
   1     -621.40720809    -621.40720809     0.00D+00     0.19D+00     0     0       0.03      0.07    start
   2     -621.43535072      -0.02814263     0.60D-02     0.23D-01     1     0       0.03      0.10    diag
   3     -621.43827919      -0.00292847     0.24D-02     0.63D-02     2     0       0.03      0.13    diag
   4     -621.43834275      -0.00006356     0.20D-03     0.11D-02     3     0       0.03      0.16    diag
   5     -621.43834586      -0.00000311     0.46D-04     0.23D-03     4     0       0.04      0.20    diag
   6     -621.43834603      -0.00000017     0.75D-05     0.50D-04     5     0       0.03      0.23    diag
   7     -621.43834604      -0.00000001     0.19D-05     0.12D-04     6     0       0.03      0.26    diag
   8     -621.43834604      -0.00000000     0.43D-06     0.20D-05     7     0       0.03      0.29    fixocc
   9     -621.43834604      -0.00000000     0.11D-06     0.36D-06     0     0       0.03      0.32    diag

 Final occupancy:  14

 !RHF STATE 1.1 Energy               -621.438346039003
  RHF One-electron energy            -949.126963867793
  RHF Two-electron energy             285.758050693680
  RHF Kinetic energy                  621.462163561830
  RHF Nuclear energy                   41.930567135111
  RHF Virial quotient                  -0.999961675023

 !RHF STATE 1.1 Dipole moment          -0.00000000    -0.00000000    -3.68337493
 Dipole moment /Debye                  -0.00000000    -0.00000000    -9.36220523

 ELECTRON ORBITALS
 =================

  Orbital  Occupation    Energy    Cen Mu Typ  Coefficients
    1.1     2.00000  -104.70465     2  1  s    1.00002
    2.1     2.00000   -40.50118     1  1  s    0.99998
    3.1     2.00000   -10.42980     2  2  s    1.00338
    4.1     2.00000    -7.89624     2  1  pz   0.99992
    5.1     2.00000    -7.89540     2  1  px   0.99842
    6.1     2.00000    -7.89540     2  1  py   0.99842
    7.1     2.00000    -2.82444     1  2  s    1.00175
    8.1     2.00000    -1.54670     1  1  pz   1.00137
    9.1     2.00000    -1.54657     1  1  px  -0.65343    1  1  py   0.75692
   10.1     2.00000    -1.54657     1  1  px   0.75692    1  1  py   0.65343
   11.1     2.00000    -0.94260     2  3  s    0.92783
   12.1     2.00000    -0.37063     2  2  pz   0.89128
   13.1     2.00000    -0.35261     2  2  px   0.36590    2  2  py   0.82992
   14.1     2.00000    -0.35261     2  2  px   0.82992    2  2  py  -0.36590


 HOMO     14.1    -0.352614 =      -9.5951eV
 LUMO     15.1    -0.020564 =      -0.5596eV
 LUMO-HOMO         0.332049 =       9.0355eV

 Orbitals saved in record  2100.2


 **********************************************************************************************************************************
 DATASETS  * FILE   NREC   LENGTH (MB)   RECORD NAMES
              1      18       28.95       500      610      700      900      950      970     1000      129      960     1100   
                                          VAR    BASINP    GEOM    SYMINP    ZMAT    AOBASIS   BASIS     P2S    ABASIS      S 
                                         1400     1410     1200     1210     1080     1600     1650     1700   
                                           T        V       H0       H01     AOSYM     SMH    MOLCAS    OPER   

              2       4        0.57       700     1000      520     2100   
                                         GEOM     BASIS   MCVARS     RHF  

 PROGRAMS   *        TOTAL     DF-HF       INT
 CPU TIMES  *         0.53      0.32      0.11
 REAL TIME  *         0.97 SEC
 DISK USED  *        31.25 MB
 **********************************************************************************************************************************


 PROGRAM * MP2 (Closed-shell)     Authors: C. Hampel, H.-J. Werner, 1991, M. Deegan, P.J. Knowles, 1992



 Generating basis AUG-CC-PVDZ-MP2FIT
  Atom=NA       basis=aug-cc-pVDZ/MP2FIT
  Atom=CL       basis=aug-cc-pVDZ/MP2FIT
 Number of basis functions:     184


 Convergence thresholds:  THRVAR = 1.00D-08  THRDEN = 1.00D-06

 Number of core orbitals:          10 (  10 )
 Number of closed-shell orbitals:   4 (   4 )
 Number of external orbitals:      40 (  40 )

 Molecular orbitals read from record     2100.2  Type=RHF/CANONICAL  


 Entering DF-MP2

 Thresholds:    THRAO= 0.100D-13    THRMO= 0.100D-13    THROV= 0.100D-13    THRPROD= 0.100D-13

 Fitting basis: AUG-CC-PVDZ-MP2FIT
 Number of fitting functions:              184

 Minimum memory with paging:              0.86 MW
 Minimum memory for incore algorithm:     0.89 MW
 Memory for 3-index integrals:            0.00 MW

 Disk space for H1-integrals:             0.32 MB (   1 records)

 SCS-MP2 correlation energy:           -0.152223339145   (PS=  1.200000  PT=  0.333333)
 SCS-MP2 total energy:               -621.590569378148

 Norm of first-order wave function:     0.048023807179
 Coefficient of reference function:     0.976819736422

  Reference energy                   -621.438346039003
  MP2 singlet pair energy              -0.093537971033
  MP2 triplet pair energy              -0.064249993777
  MP2 correlation energy               -0.157787964810

 !MP2 total energy                   -621.596134003812


 **********************************************************************************************************************************
 DATASETS  * FILE   NREC   LENGTH (MB)   RECORD NAMES
              1      18       28.95       500      610      700      900      950      970     1000      129      960     1100   
                                          VAR    BASINP    GEOM    SYMINP    ZMAT    AOBASIS   BASIS     P2S    ABASIS      S 
                                         1400     1410     1200     1210     1080     1600     1650     1700   
                                           T        V       H0       H01     AOSYM     SMH    MOLCAS    OPER   

              2       4        0.57       700     1000      520     2100   
                                         GEOM     BASIS   MCVARS     RHF  

 PROGRAMS   *        TOTAL    DF-MP2     DF-HF       INT
 CPU TIMES  *         0.58      0.05      0.32      0.11
 REAL TIME  *         1.08 SEC
 DISK USED  *        31.25 MB
 **********************************************************************************************************************************


 PROGRAM * MP2 (Closed-shell)     Authors: C. Hampel, H.-J. Werner, 1991, M. Deegan, P.J. Knowles, 1992

                                   MP2-F12 implementation by H.-J. Werner, 2007

                   Density fitting integral evaluation by F.R. Manby, 2003,2007, G. Knizia, 2010


 CORETYPE=MIXED


 Generating basis AVDZ-JKFIT

 Generating basis AVDZ-JKFIT

 Generating basis AUG-CC-PVDZ-MP2FIT

 Convergence thresholds:  THRVAR = 1.00D-08  THRDEN = 1.00D-06

 Number of core orbitals:           6 (   6 )
 Number of closed-shell orbitals:   8 (   8 )
 Number of external orbitals:      40 (  40 )

 Molecular orbitals read from record     2100.2  Type=RHF/CANONICAL  

 Checking core orbitals using projection, core_type=MIXED
 Threshold for active space selection:  0.30

 Generating basis MINAO-AUTO-PP
  Atom=NA       basis=MINAO
  Atom=CL       basis=MINAO
 Number of basis functions:      15

 Number of target functions:              6

 MP2-F12 correlation treatment (H.-J. Werner, 2006)
 ==================================================

 Using MP2-F12 with ansatz 3C(FIX)

 Using projected zeroth-order Hamiltonian (+Z)

 FOCKRIB=T FOCKRIC=T FOCKRIP=T CABSP=T CABSA=T CABSK=T CABSF=T GBC=F EBC=F DMAT=T NOFIK=T NOPAO=1 SOLVE=-1  USEPAO=0
 EXCH_A= T EXCH_B= F EXCH_C= F EXCH_P= F

 Geminal basis:    OPTFULL  GEM_TYPE=SLATER  BETA=1.3  NGEM=6

 Optimizing Gaussian exponents for each gem_beta

 Geminal optimization for beta= 1.3000
 Weight function:   m=0, omega= 1.7445

 Augmented Hessian optimization of geminal fit. Trust ratio= 0.40000
 Convergence reached after   7 iterations. Final gradient= 5.27D-18, Step= 3.92D-08, Delta= 1.15D-09

 Alpha:                 0.28911     1.11593     3.75397    12.31549    46.08106   254.99017
 Coeff:                 0.22540     0.30241     0.19890     0.12373     0.07763     0.04833


 All pairs explicitly correlated. Number of r12-pairs:           36

 Excluding core orbitals from MO domains

 AO(A)-basis ORBITAL           loaded. Number of functions:      54
 RI(R)-basis AVDZ/JKFIT        loaded. Number of functions:     240
 DF-basis AVDZ/JKFIT           loaded. Number of functions:     240

 Screening thresholds:   THRAO=  1.00D-14  THRMO=  1.00D-14  THRPROD=  1.00D-14
                         THRSW=  1.00D-14  THROV=  1.00D-14  THRAOF12= 1.00D-08

 CPU time for Fock operators                      0.37 sec

 Construction of ABS:
 Smallest eigenvalue of S          1.36E-05  (threshold= 1.00E-08)
 Ratio eigmin/eigmax               1.93E-06  (threshold= 1.00E-09)
 Smallest eigenvalue of S kept     1.36E-05  (threshold= 1.36E-05, 0 functions deleted, 240 kept)

 Construction of CABS:
 Smallest eigenvalue of S          3.26E-08  (threshold= 1.00E-08)
 Ratio eigmin/eigmax               3.26E-08  (threshold= 1.00E-09)
 Smallest eigenvalue of S kept     3.26E-08  (threshold= 3.26E-08, 0 functions deleted, 240 kept)

 CPU time for CABS singles                        0.01 sec

 CABS-singles contribution of  -0.00617020 patched into reference energy.
 New reference energy        -621.44451624

 AO(A)-basis ORBITAL           loaded. Number of functions:      54
 RI(R)-basis AVDZ/JKFIT        loaded. Number of functions:     240
 DF-basis AUG-CC-PVDZ/MP2FIT   loaded. Number of functions:     184

 Screening thresholds:   THRAO=  1.00D-14  THRMO=  1.00D-14  THRPROD=  1.00D-14
                         THRSW=  1.00D-14  THROV=  1.00D-14  THRAOF12= 1.00D-08

 CPU time for 3-index integral evaluation         0.42 sec
 CPU time for first  half transformation          0.01 sec (21271.0 MFLOP/sec)
 CPU time for fitting                             0.01 sec (18201.0 MFLOP/sec)
 CPU time for tilde quantities                    0.03 sec ( 6067.0 MFLOP/sec)
 CPU time for assembly                            0.05 sec (47314.2 MFLOP/sec)
 CPU time for tranop_f12                          0.09 sec (42559.0 MFLOP/sec)
 CPU time for f12 integrals (total)               0.75 sec, Elapsed time:      0.87 sec
 CPU time for f12 matrices (total)                0.04 sec, Elapsed time:      0.04 sec

 Diagonal F12 approximation with fixed coefficients:  TSING= 0.500,  TTRIP= 0.250 (scaled by -1/beta)

 DF-MP2-F12 energy corrections:
 ==============================
 Approx.                                    Singlet             Triplet             Total
 DF-MP2-F12/3*C(DX,FIX)                -0.241669282031     -0.083244241160     -0.324913523190
 DF-MP2-F12/3*C(FIX)                   -0.237574654584     -0.102046889667     -0.339621544251
 DF-MP2-F12/3C(FIX)                    -0.235330320537     -0.101312725207     -0.336643045744

 DF-MP2-F12 correlation energies:
 ================================
 Approx.                                    Singlet             Triplet             Ecorr            Total Energy
 DF-MP2                                -0.094682597254     -0.065188246257     -0.159870843511   -621.604387081130
 DF-MP2-F12/3*C(DX,FIX)                -0.336351879284     -0.148432487417     -0.484784366701   -621.929300604321
 DF-MP2-F12/3*C(FIX)                   -0.332257251837     -0.167235135924     -0.499492387762   -621.944008625381
 DF-MP2-F12/3C(FIX)                    -0.330012917791     -0.166500971464     -0.496513889255   -621.941030126874

 SCS-DF-MP2 energies (F_SING= 1.20000  F_TRIP= 0.62222  F_PARALLEL= 0.33333):
 ============================================================================
 SCS-DF-MP2                            -0.154180692153   -621.598696929773
 SCS-DF-MP2-F12/3*C(DX,FIX)            -0.495980247312   -621.940496484931
 SCS-DF-MP2-F12/3*C(FIX)               -0.502766120114   -621.947282357733
 SCS-DF-MP2-F12/3C(FIX)                -0.499616105816   -621.944132343435


  Reference energy                   -621.438346039003
  F12 singles correction               -0.006170198617

 F12 singles corrections added to reference energy

  New reference energy               -621.444516237619

  F12/3C(F) singlet correction         -0.235330320537
  F12/3C(F) triplet correction         -0.101312725207
  F12/3C(F) total correction           -0.336643045744
  MP2-F12/3C(F) singlet pair energy    -0.330012917791
  MP2-F12/3C(F) triplet pair energy    -0.166500971464
  MP2-F12/3C(F) correlation energy     -0.496513889255

 !MP2-F12/3C(F) total energy         -621.941030126874


 **********************************************************************************************************************************
 DATASETS  * FILE   NREC   LENGTH (MB)   RECORD NAMES
              1      18       28.95       500      610      700      900      950      970     1000      129      960     1100   
                                          VAR    BASINP    GEOM    SYMINP    ZMAT    AOBASIS   BASIS     P2S    ABASIS      S 
                                         1400     1410     1200     1210     1080     1600     1650     1700   
                                           T        V       H0       H01     AOSYM     SMH    MOLCAS    OPER   

              2       5        0.60       700     1000      520     2100     7360   
                                         GEOM     BASIS   MCVARS     RHF    F12ABS    

 PROGRAMS   *        TOTAL   MP2-F12    DF-MP2     DF-HF       INT
 CPU TIMES  *         1.83      1.24      0.05      0.32      0.11
 REAL TIME  *         2.54 SEC
 DISK USED  *       140.02 MB
 **********************************************************************************************************************************

 DF-MP2-F12/aug-cc-pVDZ energy=   -621.941030126874

      DF-MP2-F12          DF-MP2           DF-HF
   -621.94103013   -621.59613400   -621.43834604
 **********************************************************************************************************************************
 Molpro calculation terminated
