
 Working directory              : /SCR1/amin/betas_for_H.152664-20250723/molpro.75Msv05qTa/
 Global scratch directory       : /SCR1/amin/betas_for_H.152664-20250723/molpro.75Msv05qTa/
 Wavefunction directory         : /home/linux3_i1/amin/molpro_calculations/test_molpro_dev/f12xg_inputs/
 Main file repository           : /SCR1/amin/betas_for_H.152664-20250723/molpro.75Msv05qTa/

 id        : kamin

 Nodes     nprocs
 orpheus46    1
 GA implementation: MPI file
 GA implementation (serial work in mppx): MPI file

 Using customized tuning parameters: mindgm=1; mindgv=20; mindgc=4; mindgr=1; noblas=0; minvec=7
 default implementation of scratch files=df  


 Variables initialized (1045), CPU time= 0.01 sec
 Namespace(atom='H', betas=[0.25, 3.0, 0.05], outfile=None, basis='awcvtz', charge=0)
 
     geometry={H}
     set,charge=0
     basis=awcvtz
     gem_beta=[0.25,0.30,0.35,0.40,0.45,0.50,0.55,0.60,0.65,0.70,0.75,0.80,0.85,0.90,0.95,1.00,1.05,1.10,1.15,1.20,1.25,1.30,1.35,1.40,1.45,1.50,1.55,1.60,1.65,1.70,1.75,1.80,1.85,1.90,1.95,2.00,2.05,2.10,2.15,2.20,2.25,2.30,2.35,2.40,2.45,2.50,2.55,2.60,2.65,2.70,2.75,2.80,2.85,2.90,2.95]
     {df-hf}
     {df-mp2}
     do i=1, #gem_beta
     {df-mp2-f12,gem_beta=[gem_beta(i)];core,mixed}
     e(i)=energy-energr
     enddo
     table,gem_beta,e;save,file='table_H0.csv'
 
 Commands initialized (836), CPU time= 0.00 sec, 720 directives.
 Default parameters read. Elapsed time= 0.12 sec

 Checking input...
 Passed
1


                                         ***  PROGRAM SYSTEM MOLPRO  ***
                                       Copyright, TTI GmbH Stuttgart, 2015
                                    Version 2024.3 linked Thu Jul 17 16:02:16 2025


 **********************************************************************************************************************************
 LABEL *                                                                                                                                                                 
  64 bit serial version                                                                  DATE: 23-Jul-25          TIME: 19:00:19  
 **********************************************************************************************************************************

 SHA1:             f8efddab7e9fb8d4eb929e30d491a2212e57de49
 **********************************************************************************************************************************

 Memory per process:        32 MW
 Total memory per node:     32 MW

 GA preallocation disabled
 GA check disabled
 NAMESPACE(ATOM  =  ''H',BETAS=[0.25,3.0,0.05],OUTFILE=NONE,BASIS='awcvtz',CHARGE=0)'

 Turning off symmetry in density fitting calculation
 To re-enable, use 'symmetry,auto'

 CHARGE          =    0.0000000D+00                                  

 Variable memory set to 32.0 MW

 SETTING BASIS          =    AWCVTZ
 GEM_BETA(1)     =       0.25000000                                  
 GEM_BETA(2)     =       0.30000000                                  
 GEM_BETA(3)     =       0.35000000                                  
 GEM_BETA(4)     =       0.40000000                                  
 GEM_BETA(5)     =       0.45000000                                  
 GEM_BETA(6)     =       0.50000000                                  
 GEM_BETA(7)     =       0.55000000                                  
 GEM_BETA(8)     =       0.60000000                                  
 GEM_BETA(9)     =       0.65000000                                  
 GEM_BETA(10)    =       0.70000000                                  
 GEM_BETA(11)    =       0.75000000                                  
 GEM_BETA(12)    =       0.80000000                                  
 GEM_BETA(13)    =       0.85000000                                  
 GEM_BETA(14)    =       0.90000000                                  
 GEM_BETA(15)    =       0.95000000                                  
 GEM_BETA(16)    =       1.00000000                                  
 GEM_BETA(17)    =       1.05000000                                  
 GEM_BETA(18)    =       1.10000000                                  
 GEM_BETA(19)    =       1.15000000                                  
 GEM_BETA(20)    =       1.20000000                                  
 GEM_BETA(21)    =       1.25000000                                  
 GEM_BETA(22)    =       1.30000000                                  
 GEM_BETA(23)    =       1.35000000                                  
 GEM_BETA(24)    =       1.40000000                                  
 GEM_BETA(25)    =       1.45000000                                  
 GEM_BETA(26)    =       1.50000000                                  
 GEM_BETA(27)    =       1.55000000                                  
 GEM_BETA(28)    =       1.60000000                                  
 GEM_BETA(29)    =       1.65000000                                  
 GEM_BETA(30)    =       1.70000000                                  
 GEM_BETA(31)    =       1.75000000                                  
 GEM_BETA(32)    =       1.80000000                                  
 GEM_BETA(33)    =       1.85000000                                  
 GEM_BETA(34)    =       1.90000000                                  
 GEM_BETA(35)    =       1.95000000                                  
 GEM_BETA(36)    =       2.00000000                                  
 GEM_BETA(37)    =       2.05000000                                  
 GEM_BETA(38)    =       2.10000000                                  
 GEM_BETA(39)    =       2.15000000                                  
 GEM_BETA(40)    =       2.20000000                                  
 GEM_BETA(41)    =       2.25000000                                  
 GEM_BETA(42)    =       2.30000000                                  
 GEM_BETA(43)    =       2.35000000                                  
 GEM_BETA(44)    =       2.40000000                                  
 GEM_BETA(45)    =       2.45000000                                  
 GEM_BETA(46)    =       2.50000000                                  
 GEM_BETA(47)    =       2.55000000                                  
 GEM_BETA(48)    =       2.60000000                                  
 GEM_BETA(49)    =       2.65000000                                  
 GEM_BETA(50)    =       2.70000000                                  
 GEM_BETA(51)    =       2.75000000                                  
 GEM_BETA(52)    =       2.80000000                                  
 GEM_BETA(53)    =       2.85000000                                  
 GEM_BETA(54)    =       2.90000000                                  
 GEM_BETA(55)    =       2.95000000                                  


 Recomputing integrals since basis changed


 Using spherical harmonics

 Library entry H      S aug-cc-pVTZ          selected for orbital group  1
 Library entry H      P aug-cc-pVTZ          selected for orbital group  1
 Library entry H      D aug-cc-pVTZ          selected for orbital group  1


 PROGRAM * SEWARD (Integral evaluation for generally contracted gaussian basis sets)     Author: Roland Lindh, 1990

 Geometry written to block  1 of record 700

 Orientation using atomic masses  
 Molecule type: Atom
 Rotational constants:       0.0000000      0.0000000      0.0000000 GHz  (calculated with average atomic masses)

 Point group  C1  



 ATOMIC COORDINATES

 NR  ATOM    CHARGE       X              Y              Z

   1  H       1.00    0.000000000    0.000000000    0.000000000

 NUCLEAR CHARGE:                    1
 NUMBER OF PRIMITIVE AOS:          27
 NUMBER OF SYMMETRY AOS:           25
 NUMBER OF CONTRACTIONS:           23   (   23A   )
 NUMBER OF INNER CORE ORBITALS:     0   (    0A   )
 NUMBER OF OUTER CORE ORBITALS:     0   (    0A   )
 NUMBER OF VALENCE ORBITALS:        1   (    1A   )


 NUCLEAR REPULSION ENERGY    0.00000000

 EXTRA SYMMETRY OF AOS IN SYMMETRY 1:   1 1 1 1 2 3 4 2 3 4   2 3 4 5 6 7 8 9 5 6   7 8 9

 Eigenvalues of metric

         1 0.133E-01 0.111E+00 0.230E+00 0.230E+00 0.230E+00 0.574E+00 0.574E+00 0.574E+00


 OPERATOR DM      FOR CENTER  0  COORDINATES:    0.000000    0.000000    0.000000


 **********************************************************************************************************************************
 DATASETS  * FILE   NREC   LENGTH (MB)   RECORD NAMES
              1      18       28.83       500      610      700      900      950      970     1000      129      960     1100   
                                          VAR    BASINP    GEOM    SYMINP    ZMAT    AOBASIS   BASIS     P2S    ABASIS      S 
                                         1400     1410     1200     1210     1080     1600     1650     1700   
                                           T        V       H0       H01     AOSYM     SMH    MOLCAS    OPER   

 PROGRAMS   *        TOTAL       INT
 CPU TIMES  *         0.19      0.09
 REAL TIME  *         0.36 SEC
 DISK USED  *        29.14 MB
 **********************************************************************************************************************************


 Program * Restricted Hartree-Fock


 Generating basis AWCVTZ-JKFIT
  Atom=H        basis=aug-cc-pVTZ/JKFIT
 Number of basis functions:      46

 Coulomb and exchange fitting
 Thresholds for fitting:       THRAO_COUL= 1.0D-15    THRAO_EXCH= 1.0D-13    THRMO= 1.0D-12    THRPROD= 1.0D-12    THRASM= 1.0D-12
                               THR2HLF=    1.0D-12

 Basis set AWCVTZ-JKFIT loaded. Number of basis functions: 46


 Generating basis MINAO
  Atom=H        basis=MINAO
 Number of basis functions:       1

 Orbital guess generated from atomic densities.
 Using density fitting in orbital guess


 Initial alpha occupancy:   1
 Initial beta  occupancy:   0

 NELEC=    1   SYM=1   MS2= 1   THRE=1.0D-08   THRD=3.2D-06   THRG=3.2D-06  HFMA2=F  DIIS_START=2   DIIS_MAX=10   DIIS_INCORE=F

 Level shifts:    0.00 (CLOSED)    0.00 (OPEN)    0.30 (GAP_MIN)

 ITER           ETOT              DE          GRAD        DDIFF     DIIS  NEXP   TIME(IT)  TIME(TOT)  DIAG
   1       -0.48869890      -0.48869890     0.00D+00     0.41D-01     0     0       0.01      0.01    start
   2       -0.49809496      -0.00939607     0.81D-02     0.14D-01     1     0       0.00      0.01    diag2
   3       -0.49982032      -0.00172536     0.32D-02     0.89D-02     2     0       0.00      0.01    diag2
   4       -0.49982117      -0.00000085     0.80D-04     0.17D-03     3     0       0.00      0.01    diag2
   5       -0.49982118      -0.00000000     0.55D-05     0.16D-04     4     0       0.00      0.01    diag2
   6       -0.49982118      -0.00000000     0.63D-06     0.15D-05     5     0       0.00      0.01    diag2
   7       -0.49982118       0.00000000     0.93D-09     0.23D-08     0     0       0.00      0.01    diag

 Final alpha occupancy:   1
 Final beta  occupancy:   0

 !RHF STATE 1.1 Energy                 -0.499821176024
  RHF One-electron energy              -0.499821176024
  RHF Two-electron energy              -0.000000000000
  RHF Kinetic energy                    0.499305879827
  RHF Nuclear energy                    0.000000000000
  RHF Virial quotient                  -1.001032025094

 !RHF STATE 1.1 Dipole moment           0.00000000     0.00000000     0.00000000
 Dipole moment /Debye                   0.00000000     0.00000000     0.00000000

 Orbital energies:

           1.1          2.1          3.1
     -0.499821     0.057730     0.205850


 HOMO      1.1    -0.499821 =     -13.6008eV
 LUMO      2.1     0.057730 =       1.5709eV
 LUMO-HOMO         0.557551 =      15.1717eV

 Orbitals saved in record  2100.2


 **********************************************************************************************************************************
 DATASETS  * FILE   NREC   LENGTH (MB)   RECORD NAMES
              1      18       28.83       500      610      700      900      950      970     1000      129      960     1100   
                                          VAR    BASINP    GEOM    SYMINP    ZMAT    AOBASIS   BASIS     P2S    ABASIS      S 
                                         1400     1410     1200     1210     1080     1600     1650     1700   
                                           T        V       H0       H01     AOSYM     SMH    MOLCAS    OPER   

              2       4        0.53       700     1000      520     2100   
                                         GEOM     BASIS   MCVARS     RHF  

 PROGRAMS   *        TOTAL     DF-HF       INT
 CPU TIMES  *         0.20      0.01      0.09
 REAL TIME  *         0.41 SEC
 DISK USED  *        29.57 MB
 **********************************************************************************************************************************


 PROGRAM * RMP2 (Restricted open-shell)     Authors: H.-J. Werner, 2001



 Generating basis AWCVTZ-MP2FIT
  Atom=H        basis=aug-cc-pVTZ/MP2FIT
 Number of basis functions:      46


 Convergence thresholds:  THRVAR = 1.00D-08  THRDEN = 1.00D-06

 Number of active  orbitals:        1 (   1 )
 Number of external orbitals:      22 (  22 )

 Number of N-1 electron functions:               1
 Number of N-2 electron functions:               0
 Number of singly external CSFs:                23
 Number of doubly external CSFs:                 0
 Total number of CSFs:                          23

 Molecular orbitals read from record     2100.2  Type=RHF/CANONICAL  


 Fock operators(AO) taken from dump record.
 CPU time for Fock operator transformation        0.01 sec
 CPU time for singles (tot)                       0.00 sec

 AO(A)-basis ORBITAL           loaded. Number of functions:      23
 DF-basis AWCVTZ/MP2FIT        loaded. Number of functions:      46

 Screening thresholds:   THRAO=  1.00D-14  THRMO=  1.00D-14  THRPROD=  1.00D-14
                         THRSW=  1.00D-14  THROV=  1.00D-14  THRAOF12= 1.00D-08

 Using semi-canonical formulas. This will break singlet/triplet splittings.

                                      TOTAL          ALPHA          BETA    
  Singles Contributions MO        -0.000000000   -0.000000000    0.000000000


 DF-RMP2 doubles energies:
 - - - - - - - - - - - - -
  Approx.                             TOTAL           A-B            A-A            B-B    
  RMP2                             0.000000000    0.000000000    0.000000000    0.000000000


  Reference energy                     -0.499821176024
  DF-RMP2 singles (MO) energy          -0.000000000000
  DF-RMP2 pair energy                   0.000000000000
  DF-RMP2 correlation energy            0.000000000000
 !DF-RMP2 energy                       -0.499821176024


 **********************************************************************************************************************************
 DATASETS  * FILE   NREC   LENGTH (MB)   RECORD NAMES
              1      18       28.83       500      610      700      900      950      970     1000      129      960     1100   
                                          VAR    BASINP    GEOM    SYMINP    ZMAT    AOBASIS   BASIS     P2S    ABASIS      S 
                                         1400     1410     1200     1210     1080     1600     1650     1700   
                                           T        V       H0       H01     AOSYM     SMH    MOLCAS    OPER   

              2       4        0.53       700     1000      520     2100   
                                         GEOM     BASIS   MCVARS     RHF  

 PROGRAMS   *        TOTAL    DF-MP2     DF-HF       INT
 CPU TIMES  *         0.24      0.04      0.01      0.09
 REAL TIME  *         0.47 SEC
 DISK USED  *        29.91 MB
 **********************************************************************************************************************************

 DO I                   =         1.00000000   


 PROGRAM * RMP2 (Restricted open-shell)     Authors: H.-J. Werner, 2001

                            RMP2-F12 implementation by G. Knizia and H.-J. Werner, 2008

                   Density fitting integral evaluation by F.R. Manby, 2003,2007, G. Knizia, 2010


 CORETYPE=MIXED


 Generating basis AWCVTZ-JKFIT

 Generating basis AWCVTZ-JKFIT

 Generating basis AWCVTZ-MP2FIT

 Convergence thresholds:  THRVAR = 1.00D-08  THRDEN = 1.00D-06

 Number of active  orbitals:        1 (   1 )
 Number of external orbitals:      22 (  22 )

 Number of N-1 electron functions:               1
 Number of N-2 electron functions:               0
 Number of singly external CSFs:                23
 Number of doubly external CSFs:                 0
 Total number of CSFs:                          23

 Molecular orbitals read from record     2100.2  Type=RHF/CANONICAL  

 Geminal basis:    OPTFULL  GEM_TYPE=SLATER  BETA=0.25  NGEM=6

 Optimizing Gaussian exponents for each gem_beta

 Geminal optimization for beta= 0.2500
 Weight function:   m=0, omega= 0.5812

 Augmented Hessian optimization of geminal fit. Trust ratio= 0.40000

 NO CONVERGENCE IN GEMINAL FIT AFTER 200 ITEARTIONS
 Final gradient= 1.45522D-04, Step= 2.16182D-18, Delta= 8.69504D-06

 Alpha:                 0.02000     1.43702     0.09368     2.26415     8.94577    49.44788
 Coeff:                 0.32909     0.30733     0.44367    -0.18855     0.10098    -0.02046


 WFN_F12=FIX,EG    DECOUPLE_EXPL=F   HYBRID=0    NOX=F   SEMIINT_F12=T   CORE_SINGLES=F


 AO(A)-basis ORBITAL           loaded. Number of functions:      23
 RI(R)-basis AWCVTZ/JKFIT      loaded. Number of functions:      46
 DF-basis AWCVTZ/JKFIT         loaded. Number of functions:      46

 Screening thresholds:   THRAO=  1.00D-14  THRMO=  1.00D-14  THRPROD=  1.00D-14
                         THRSW=  1.00D-14  THROV=  1.00D-14  THRAOF12= 1.00D-08

 CPU time for one-electron matrices               0.01 sec

 Construction of ABS:
 Pseudo-inverse stability          2.30E-14
 Smallest eigenvalue of S          1.36E-02  (threshold= 1.00E-08)
 Ratio eigmin/eigmax               4.23E-03  (threshold= 1.00E-09)
 Smallest eigenvalue of S kept     1.36E-02  (threshold= 1.36E-02, 0 functions deleted, 46 kept)

 Construction of CABS:
 Pseudo-inverse stability          2.70E-11
 Smallest eigenvalue of S          1.48E-05  (threshold= 1.00E-08)
 Ratio eigmin/eigmax               1.48E-05  (threshold= 1.00E-09)
 Smallest eigenvalue of S kept     1.48E-05  (threshold= 1.48E-05, 0 functions deleted, 46 kept)

 CPU time for basis constructions                 0.00 sec
 CPU time for Fock operator transformation        0.00 sec

                                      TOTAL          ALPHA          BETA    
  Singles Contributions MO        -0.000000000   -0.000000000    0.000000000
  Singles Contributions CABS      -0.000030762   -0.000030762    0.000000000
  Pure DF-RHF relaxation          -0.000030762

 CPU time for RHF CABS relaxation                 0.00 sec
 CPU time for singles (tot)                       0.00 sec

 AO(A)-basis ORBITAL           loaded. Number of functions:      23
 RI(R)-basis AWCVTZ/JKFIT      loaded. Number of functions:      46
 DF-basis AWCVTZ/MP2FIT        loaded. Number of functions:      46

 Screening thresholds:   THRAO=  1.00D-14  THRMO=  1.00D-14  THRPROD=  1.00D-14
                         THRSW=  1.00D-14  THROV=  1.00D-14  THRAOF12= 1.00D-08

 CPU time for transformed integrals               0.02 sec
 CPU time for F12 matrices                        0.00 sec

 Diagonal F12 ansatz with fixed amplitudes:   TS= 0.5000  TT= 0.2500  TN= 0.3750

 ITER.     SQ.NORM      CORR.ENERGY   TOTAL ENERGY  ENERGY CHANGE      VAR         CPU   MICRO    DIIS
   1      1.00000000    -0.00000000    -0.49985194    -3.0762E-05   0.00E+00      0.00  1  1  1   0  0
   2      1.00000000    -0.00000000    -0.49985194     0.0000E+00   0.00E+00      0.00  0  0  0   0  0

 - - Continuing with F12/conv. amplitude coupling turned on.

   3      1.00000000    -0.00000000    -0.49985194     0.0000E+00   0.00E+00      0.00  1  1  1   0  0

 CPU time for iterative RMP2-F12                  0.00 sec


 DF-RMP2-F12 doubles corrections:
 - - - - - - - - - - - - - - - - 
  Approx.                             TOTAL           A-B            A-A            B-B    
  RMP2-F12/3C(FIX)                 0.000000000    0.000000000    0.000000000    0.000000000
  RMP2-F12/3*C(FIX)                0.000000000    0.000000000    0.000000000    0.000000000
  RMP2-F12/3*C(DX)                 0.000000000    0.000000000    0.000000000    0.000000000
  RMP2-F12/3*C(FIX,DX)             0.000000000    0.000000000    0.000000000    0.000000000

 DF-RMP2-F12 doubles energies:
 - - - - - - - - - - - - - - -
  Approx.                             TOTAL           A-B            A-A            B-B    
  RMP2                             0.000000000    0.000000000    0.000000000    0.000000000
  RMP2-F12/3C(FIX)                 0.000000000    0.000000000    0.000000000    0.000000000
  RMP2-F12/3*C(FIX)                0.000000000    0.000000000    0.000000000    0.000000000
  RMP2-F12/3*C(DX)                 0.000000000    0.000000000    0.000000000    0.000000000
  RMP2-F12/3*C(FIX,DX)             0.000000000    0.000000000    0.000000000    0.000000000


  Reference energy                     -0.499821176024
  CABS relaxation correction to RHF    -0.000030761822
  New reference energy                 -0.499851937846

  RMP2-F12 singles (MO) energy         -0.000000000000
  RMP2-F12 pair energy                  0.000000000000
  RMP2-F12 correlation energy           0.000000000000

 !RMP2-F12/3C(FIX) energy              -0.499851937846


 **********************************************************************************************************************************
 DATASETS  * FILE   NREC   LENGTH (MB)   RECORD NAMES
              1      18       28.83       500      610      700      900      950      970     1000      129      960     1100   
                                          VAR    BASINP    GEOM    SYMINP    ZMAT    AOBASIS   BASIS     P2S    ABASIS      S 
                                         1400     1410     1200     1210     1080     1600     1650     1700   
                                           T        V       H0       H01     AOSYM     SMH    MOLCAS    OPER   

              2       5        0.53       700     1000      520     2100     7360   
                                         GEOM     BASIS   MCVARS     RHF    F12ABS    

 PROGRAMS   *        TOTAL   MP2-F12    DF-MP2     DF-HF       INT
 CPU TIMES  *         2.25      2.01      0.04      0.01      0.09
 REAL TIME  *         2.54 SEC
 DISK USED  *        30.76 MB
 **********************************************************************************************************************************
 E(1)            =    0.0000000D+00  AU                              

 DO I                   =         2.00000000   


 PROGRAM * RMP2 (Restricted open-shell)     Authors: H.-J. Werner, 2001

                            RMP2-F12 implementation by G. Knizia and H.-J. Werner, 2008

                   Density fitting integral evaluation by F.R. Manby, 2003,2007, G. Knizia, 2010


 CORETYPE=MIXED


 Generating basis AWCVTZ-JKFIT

 Generating basis AWCVTZ-JKFIT

 Generating basis AWCVTZ-MP2FIT

 Convergence thresholds:  THRVAR = 1.00D-08  THRDEN = 1.00D-06

 Number of active  orbitals:        1 (   1 )
 Number of external orbitals:      22 (  22 )

 Number of N-1 electron functions:               1
 Number of N-2 electron functions:               0
 Number of singly external CSFs:                23
 Number of doubly external CSFs:                 0
 Total number of CSFs:                          23

 Molecular orbitals read from record     2100.2  Type=RHF/CANONICAL (state 1.1)

 Geminal basis:    OPTFULL  GEM_TYPE=SLATER  BETA=0.3  NGEM=6

 Optimizing Gaussian exponents for each gem_beta

 Geminal optimization for beta= 0.3000
 Weight function:   m=0, omega= 0.6563

 Augmented Hessian optimization of geminal fit. Trust ratio= 0.40000

 NO CONVERGENCE IN GEMINAL FIT AFTER 200 ITEARTIONS
 Final gradient= 1.24551D-04, Step= 1.95104D-18, Delta= 4.55512D-06

 Alpha:                 0.02000     1.91172     0.15496     3.31823    10.45639    59.34380
 Coeff:                 0.35113     0.26691     0.42286    -0.16267     0.10926    -0.01467


 WFN_F12=FIX,EG    DECOUPLE_EXPL=F   HYBRID=0    NOX=F   SEMIINT_F12=T   CORE_SINGLES=F


 AO(A)-basis ORBITAL           loaded. Number of functions:      23
 RI(R)-basis AWCVTZ/JKFIT      loaded. Number of functions:      46
 DF-basis AWCVTZ/JKFIT         loaded. Number of functions:      46

 Screening thresholds:   THRAO=  1.00D-14  THRMO=  1.00D-14  THRPROD=  1.00D-14
                         THRSW=  1.00D-14  THROV=  1.00D-14  THRAOF12= 1.00D-08

 CPU time for one-electron matrices               0.02 sec

 Construction of ABS:
 Pseudo-inverse stability          2.30E-14
 Smallest eigenvalue of S          1.36E-02  (threshold= 1.00E-08)
 Ratio eigmin/eigmax               4.23E-03  (threshold= 1.00E-09)
 Smallest eigenvalue of S kept     1.36E-02  (threshold= 1.36E-02, 0 functions deleted, 46 kept)

 Construction of CABS:
 Pseudo-inverse stability          2.70E-11
 Smallest eigenvalue of S          1.48E-05  (threshold= 1.00E-08)
 Ratio eigmin/eigmax               1.48E-05  (threshold= 1.00E-09)
 Smallest eigenvalue of S kept     1.48E-05  (threshold= 1.48E-05, 0 functions deleted, 46 kept)

 CPU time for basis constructions                 0.00 sec
 CPU time for Fock operator transformation        0.00 sec

                                      TOTAL          ALPHA          BETA    
  Singles Contributions MO        -0.000000000   -0.000000000    0.000000000
  Singles Contributions CABS      -0.000030762   -0.000030762    0.000000000
  Pure DF-RHF relaxation          -0.000030762

 CPU time for RHF CABS relaxation                 0.00 sec
 CPU time for singles (tot)                       0.00 sec

 AO(A)-basis ORBITAL           loaded. Number of functions:      23
 RI(R)-basis AWCVTZ/JKFIT      loaded. Number of functions:      46
 DF-basis AWCVTZ/MP2FIT        loaded. Number of functions:      46

 Screening thresholds:   THRAO=  1.00D-14  THRMO=  1.00D-14  THRPROD=  1.00D-14
                         THRSW=  1.00D-14  THROV=  1.00D-14  THRAOF12= 1.00D-08

 CPU time for transformed integrals               0.02 sec
 CPU time for F12 matrices                        0.00 sec

 Diagonal F12 ansatz with fixed amplitudes:   TS= 0.5000  TT= 0.2500  TN= 0.3750

 ITER.     SQ.NORM      CORR.ENERGY   TOTAL ENERGY  ENERGY CHANGE      VAR         CPU   MICRO    DIIS
   1      1.00000000    -0.00000000    -0.49985194    -3.0762E-05   0.00E+00      0.00  1  1  1   0  0
   2      1.00000000    -0.00000000    -0.49985194     0.0000E+00   0.00E+00      0.00  0  0  0   0  0

 - - Continuing with F12/conv. amplitude coupling turned on.

   3      1.00000000    -0.00000000    -0.49985194     0.0000E+00   0.00E+00      0.00  1  1  1   0  0

 CPU time for iterative RMP2-F12                  0.00 sec


 DF-RMP2-F12 doubles corrections:
 - - - - - - - - - - - - - - - - 
  Approx.                             TOTAL           A-B            A-A            B-B    
  RMP2-F12/3C(FIX)                 0.000000000    0.000000000    0.000000000    0.000000000
  RMP2-F12/3*C(FIX)                0.000000000    0.000000000    0.000000000    0.000000000
  RMP2-F12/3*C(DX)                 0.000000000    0.000000000    0.000000000    0.000000000
  RMP2-F12/3*C(FIX,DX)             0.000000000    0.000000000    0.000000000    0.000000000

 DF-RMP2-F12 doubles energies:
 - - - - - - - - - - - - - - -
  Approx.                             TOTAL           A-B            A-A            B-B    
  RMP2                             0.000000000    0.000000000    0.000000000    0.000000000
  RMP2-F12/3C(FIX)                 0.000000000    0.000000000    0.000000000    0.000000000
  RMP2-F12/3*C(FIX)                0.000000000    0.000000000    0.000000000    0.000000000
  RMP2-F12/3*C(DX)                 0.000000000    0.000000000    0.000000000    0.000000000
  RMP2-F12/3*C(FIX,DX)             0.000000000    0.000000000    0.000000000    0.000000000


  Reference energy                     -0.499821176024
  CABS relaxation correction to RHF    -0.000030761822
  New reference energy                 -0.499851937846

  RMP2-F12 singles (MO) energy         -0.000000000000
  RMP2-F12 pair energy                  0.000000000000
  RMP2-F12 correlation energy           0.000000000000

 !RMP2-F12/3C(FIX) energy              -0.499851937846


 **********************************************************************************************************************************
 DATASETS  * FILE   NREC   LENGTH (MB)   RECORD NAMES
              1      18       28.83       500      610      700      900      950      970     1000      129      960     1100   
                                          VAR    BASINP    GEOM    SYMINP    ZMAT    AOBASIS   BASIS     P2S    ABASIS      S 
                                         1400     1410     1200     1210     1080     1600     1650     1700   
                                           T        V       H0       H01     AOSYM     SMH    MOLCAS    OPER   

              2       5        0.53       700     1000      520     2100     7360   
                                         GEOM     BASIS   MCVARS     RHF    F12ABS    

 PROGRAMS   *        TOTAL   MP2-F12   MP2-F12    DF-MP2     DF-HF       INT
 CPU TIMES  *         4.08      1.83      2.01      0.04      0.01      0.09
 REAL TIME  *         4.41 SEC
 DISK USED  *        30.76 MB
 **********************************************************************************************************************************
 E(2)            =    0.0000000D+00  AU                              

 DO I                   =         3.00000000   


 PROGRAM * RMP2 (Restricted open-shell)     Authors: H.-J. Werner, 2001

                            RMP2-F12 implementation by G. Knizia and H.-J. Werner, 2008

                   Density fitting integral evaluation by F.R. Manby, 2003,2007, G. Knizia, 2010


 CORETYPE=MIXED


 Generating basis AWCVTZ-JKFIT

 Generating basis AWCVTZ-JKFIT

 Generating basis AWCVTZ-MP2FIT

 Convergence thresholds:  THRVAR = 1.00D-08  THRDEN = 1.00D-06

 Number of active  orbitals:        1 (   1 )
 Number of external orbitals:      22 (  22 )

 Number of N-1 electron functions:               1
 Number of N-2 electron functions:               0
 Number of singly external CSFs:                23
 Number of doubly external CSFs:                 0
 Total number of CSFs:                          23

 Molecular orbitals read from record     2100.2  Type=RHF/CANONICAL (state 1.1)

 Geminal basis:    OPTFULL  GEM_TYPE=SLATER  BETA=0.35  NGEM=6

 Optimizing Gaussian exponents for each gem_beta

 Geminal optimization for beta= 0.3500
 Weight function:   m=0, omega= 0.7274

 Augmented Hessian optimization of geminal fit. Trust ratio= 0.40000

 NO CONVERGENCE IN GEMINAL FIT AFTER 200 ITEARTIONS
 Final gradient= 2.05998D-05, Step= 2.79384D-18, Delta= 7.73656D-07

 Alpha:                 0.02000     0.11357     0.88643     3.38085    12.50516    69.22772
 Coeff:                 0.20832     0.47302     0.18630     0.04676     0.05424     0.01461


 WFN_F12=FIX,EG    DECOUPLE_EXPL=F   HYBRID=0    NOX=F   SEMIINT_F12=T   CORE_SINGLES=F


 AO(A)-basis ORBITAL           loaded. Number of functions:      23
 RI(R)-basis AWCVTZ/JKFIT      loaded. Number of functions:      46
 DF-basis AWCVTZ/JKFIT         loaded. Number of functions:      46

 Screening thresholds:   THRAO=  1.00D-14  THRMO=  1.00D-14  THRPROD=  1.00D-14
                         THRSW=  1.00D-14  THROV=  1.00D-14  THRAOF12= 1.00D-08

 CPU time for one-electron matrices               0.01 sec

 Construction of ABS:
 Pseudo-inverse stability          2.30E-14
 Smallest eigenvalue of S          1.36E-02  (threshold= 1.00E-08)
 Ratio eigmin/eigmax               4.23E-03  (threshold= 1.00E-09)
 Smallest eigenvalue of S kept     1.36E-02  (threshold= 1.36E-02, 0 functions deleted, 46 kept)

 Construction of CABS:
 Pseudo-inverse stability          2.70E-11
 Smallest eigenvalue of S          1.48E-05  (threshold= 1.00E-08)
 Ratio eigmin/eigmax               1.48E-05  (threshold= 1.00E-09)
 Smallest eigenvalue of S kept     1.48E-05  (threshold= 1.48E-05, 0 functions deleted, 46 kept)

 CPU time for basis constructions                 0.01 sec
 CPU time for Fock operator transformation        0.00 sec

                                      TOTAL          ALPHA          BETA    
  Singles Contributions MO        -0.000000000   -0.000000000    0.000000000
  Singles Contributions CABS      -0.000030762   -0.000030762    0.000000000
  Pure DF-RHF relaxation          -0.000030762

 CPU time for RHF CABS relaxation                 0.00 sec
 CPU time for singles (tot)                       0.00 sec

 AO(A)-basis ORBITAL           loaded. Number of functions:      23
 RI(R)-basis AWCVTZ/JKFIT      loaded. Number of functions:      46
 DF-basis AWCVTZ/MP2FIT        loaded. Number of functions:      46

 Screening thresholds:   THRAO=  1.00D-14  THRMO=  1.00D-14  THRPROD=  1.00D-14
                         THRSW=  1.00D-14  THROV=  1.00D-14  THRAOF12= 1.00D-08

 CPU time for transformed integrals               0.01 sec
 CPU time for F12 matrices                        0.00 sec

 Diagonal F12 ansatz with fixed amplitudes:   TS= 0.5000  TT= 0.2500  TN= 0.3750

 ITER.     SQ.NORM      CORR.ENERGY   TOTAL ENERGY  ENERGY CHANGE      VAR         CPU   MICRO    DIIS
   1      1.00000000    -0.00000000    -0.49985194    -3.0762E-05   0.00E+00      0.00  1  1  1   0  0
   2      1.00000000    -0.00000000    -0.49985194     0.0000E+00   0.00E+00      0.00  0  0  0   0  0

 - - Continuing with F12/conv. amplitude coupling turned on.

   3      1.00000000    -0.00000000    -0.49985194     0.0000E+00   0.00E+00      0.00  1  1  1   0  0

 CPU time for iterative RMP2-F12                  0.00 sec


 DF-RMP2-F12 doubles corrections:
 - - - - - - - - - - - - - - - - 
  Approx.                             TOTAL           A-B            A-A            B-B    
  RMP2-F12/3C(FIX)                 0.000000000    0.000000000    0.000000000    0.000000000
  RMP2-F12/3*C(FIX)                0.000000000    0.000000000    0.000000000    0.000000000
  RMP2-F12/3*C(DX)                 0.000000000    0.000000000    0.000000000    0.000000000
  RMP2-F12/3*C(FIX,DX)             0.000000000    0.000000000    0.000000000    0.000000000

 DF-RMP2-F12 doubles energies:
 - - - - - - - - - - - - - - -
  Approx.                             TOTAL           A-B            A-A            B-B    
  RMP2                             0.000000000    0.000000000    0.000000000    0.000000000
  RMP2-F12/3C(FIX)                 0.000000000    0.000000000    0.000000000    0.000000000
  RMP2-F12/3*C(FIX)                0.000000000    0.000000000    0.000000000    0.000000000
  RMP2-F12/3*C(DX)                 0.000000000    0.000000000    0.000000000    0.000000000
  RMP2-F12/3*C(FIX,DX)             0.000000000    0.000000000    0.000000000    0.000000000


  Reference energy                     -0.499821176024
  CABS relaxation correction to RHF    -0.000030761822
  New reference energy                 -0.499851937846

  RMP2-F12 singles (MO) energy         -0.000000000000
  RMP2-F12 pair energy                  0.000000000000
  RMP2-F12 correlation energy           0.000000000000

 !RMP2-F12/3C(FIX) energy              -0.499851937846


 **********************************************************************************************************************************
 DATASETS  * FILE   NREC   LENGTH (MB)   RECORD NAMES
              1      18       28.83       500      610      700      900      950      970     1000      129      960     1100   
                                          VAR    BASINP    GEOM    SYMINP    ZMAT    AOBASIS   BASIS     P2S    ABASIS      S 
                                         1400     1410     1200     1210     1080     1600     1650     1700   
                                           T        V       H0       H01     AOSYM     SMH    MOLCAS    OPER   

              2       5        0.53       700     1000      520     2100     7360   
                                         GEOM     BASIS   MCVARS     RHF    F12ABS    

 PROGRAMS   *        TOTAL   MP2-F12   MP2-F12   MP2-F12    DF-MP2     DF-HF       INT
 CPU TIMES  *         5.98      1.90      1.83      2.01      0.04      0.01      0.09
 REAL TIME  *         6.34 SEC
 DISK USED  *        30.76 MB
 **********************************************************************************************************************************
 E(3)            =    0.0000000D+00  AU                              

 DO I                   =         4.00000000   


 PROGRAM * RMP2 (Restricted open-shell)     Authors: H.-J. Werner, 2001

                            RMP2-F12 implementation by G. Knizia and H.-J. Werner, 2008

                   Density fitting integral evaluation by F.R. Manby, 2003,2007, G. Knizia, 2010


 CORETYPE=MIXED


 Generating basis AWCVTZ-JKFIT

 Generating basis AWCVTZ-JKFIT

 Generating basis AWCVTZ-MP2FIT

 Convergence thresholds:  THRVAR = 1.00D-08  THRDEN = 1.00D-06

 Number of active  orbitals:        1 (   1 )
 Number of external orbitals:      22 (  22 )

 Number of N-1 electron functions:               1
 Number of N-2 electron functions:               0
 Number of singly external CSFs:                23
 Number of doubly external CSFs:                 0
 Total number of CSFs:                          23

 Molecular orbitals read from record     2100.2  Type=RHF/CANONICAL (state 1.1)

 Geminal basis:    OPTFULL  GEM_TYPE=SLATER  BETA=0.4  NGEM=6

 Optimizing Gaussian exponents for each gem_beta

 Geminal optimization for beta= 0.4000
 Weight function:   m=0, omega= 0.7951

 Augmented Hessian optimization of geminal fit. Trust ratio= 0.40000

 NO CONVERGENCE IN GEMINAL FIT AFTER 200 ITEARTIONS
 Final gradient= 5.15059D-05, Step= 2.39537D-18, Delta= 2.62543D-06

 Alpha:                 0.02000     0.18320     1.82996     3.71542    14.28984    79.11718
 Coeff:                 0.23826     0.48087     0.22624    -0.06112     0.09568    -0.00775


 WFN_F12=FIX,EG    DECOUPLE_EXPL=F   HYBRID=0    NOX=F   SEMIINT_F12=T   CORE_SINGLES=F


 AO(A)-basis ORBITAL           loaded. Number of functions:      23
 RI(R)-basis AWCVTZ/JKFIT      loaded. Number of functions:      46
 DF-basis AWCVTZ/JKFIT         loaded. Number of functions:      46

 Screening thresholds:   THRAO=  1.00D-14  THRMO=  1.00D-14  THRPROD=  1.00D-14
                         THRSW=  1.00D-14  THROV=  1.00D-14  THRAOF12= 1.00D-08

 CPU time for one-electron matrices               0.01 sec

 Construction of ABS:
 Pseudo-inverse stability          2.30E-14
 Smallest eigenvalue of S          1.36E-02  (threshold= 1.00E-08)
 Ratio eigmin/eigmax               4.23E-03  (threshold= 1.00E-09)
 Smallest eigenvalue of S kept     1.36E-02  (threshold= 1.36E-02, 0 functions deleted, 46 kept)

 Construction of CABS:
 Pseudo-inverse stability          2.70E-11
 Smallest eigenvalue of S          1.48E-05  (threshold= 1.00E-08)
 Ratio eigmin/eigmax               1.48E-05  (threshold= 1.00E-09)
 Smallest eigenvalue of S kept     1.48E-05  (threshold= 1.48E-05, 0 functions deleted, 46 kept)

 CPU time for basis constructions                 0.00 sec
 CPU time for Fock operator transformation        0.01 sec

                                      TOTAL          ALPHA          BETA    
  Singles Contributions MO        -0.000000000   -0.000000000    0.000000000
  Singles Contributions CABS      -0.000030762   -0.000030762    0.000000000
  Pure DF-RHF relaxation          -0.000030762

 CPU time for RHF CABS relaxation                 0.00 sec
 CPU time for singles (tot)                       0.00 sec

 AO(A)-basis ORBITAL           loaded. Number of functions:      23
 RI(R)-basis AWCVTZ/JKFIT      loaded. Number of functions:      46
 DF-basis AWCVTZ/MP2FIT        loaded. Number of functions:      46

 Screening thresholds:   THRAO=  1.00D-14  THRMO=  1.00D-14  THRPROD=  1.00D-14
                         THRSW=  1.00D-14  THROV=  1.00D-14  THRAOF12= 1.00D-08

 CPU time for transformed integrals               0.01 sec
 CPU time for F12 matrices                        0.00 sec

 Diagonal F12 ansatz with fixed amplitudes:   TS= 0.5000  TT= 0.2500  TN= 0.3750

 ITER.     SQ.NORM      CORR.ENERGY   TOTAL ENERGY  ENERGY CHANGE      VAR         CPU   MICRO    DIIS
   1      1.00000000    -0.00000000    -0.49985194    -3.0762E-05   0.00E+00      0.00  1  1  1   0  0
   2      1.00000000    -0.00000000    -0.49985194     0.0000E+00   0.00E+00      0.00  0  0  0   0  0

 - - Continuing with F12/conv. amplitude coupling turned on.

   3      1.00000000    -0.00000000    -0.49985194     0.0000E+00   0.00E+00      0.00  1  1  1   0  0

 CPU time for iterative RMP2-F12                  0.00 sec


 DF-RMP2-F12 doubles corrections:
 - - - - - - - - - - - - - - - - 
  Approx.                             TOTAL           A-B            A-A            B-B    
  RMP2-F12/3C(FIX)                 0.000000000    0.000000000    0.000000000    0.000000000
  RMP2-F12/3*C(FIX)                0.000000000    0.000000000    0.000000000    0.000000000
  RMP2-F12/3*C(DX)                 0.000000000    0.000000000    0.000000000    0.000000000
  RMP2-F12/3*C(FIX,DX)             0.000000000    0.000000000    0.000000000    0.000000000

 DF-RMP2-F12 doubles energies:
 - - - - - - - - - - - - - - -
  Approx.                             TOTAL           A-B            A-A            B-B    
  RMP2                             0.000000000    0.000000000    0.000000000    0.000000000
  RMP2-F12/3C(FIX)                 0.000000000    0.000000000    0.000000000    0.000000000
  RMP2-F12/3*C(FIX)                0.000000000    0.000000000    0.000000000    0.000000000
  RMP2-F12/3*C(DX)                 0.000000000    0.000000000    0.000000000    0.000000000
  RMP2-F12/3*C(FIX,DX)             0.000000000    0.000000000    0.000000000    0.000000000


  Reference energy                     -0.499821176024
  CABS relaxation correction to RHF    -0.000030761822
  New reference energy                 -0.499851937846

  RMP2-F12 singles (MO) energy         -0.000000000000
  RMP2-F12 pair energy                  0.000000000000
  RMP2-F12 correlation energy           0.000000000000

 !RMP2-F12/3C(FIX) energy              -0.499851937846


 **********************************************************************************************************************************
 DATASETS  * FILE   NREC   LENGTH (MB)   RECORD NAMES
              1      18       28.83       500      610      700      900      950      970     1000      129      960     1100   
                                          VAR    BASINP    GEOM    SYMINP    ZMAT    AOBASIS   BASIS     P2S    ABASIS      S 
                                         1400     1410     1200     1210     1080     1600     1650     1700   
                                           T        V       H0       H01     AOSYM     SMH    MOLCAS    OPER   

              2       5        0.53       700     1000      520     2100     7360   
                                         GEOM     BASIS   MCVARS     RHF    F12ABS    

 PROGRAMS   *        TOTAL   MP2-F12   MP2-F12   MP2-F12   MP2-F12    DF-MP2     DF-HF       INT
 CPU TIMES  *         7.90      1.92      1.90      1.83      2.01      0.04      0.01      0.09
 REAL TIME  *         8.31 SEC
 DISK USED  *        30.76 MB
 **********************************************************************************************************************************
 E(4)            =    0.0000000D+00  AU                              

 DO I                   =         5.00000000   


 PROGRAM * RMP2 (Restricted open-shell)     Authors: H.-J. Werner, 2001

                            RMP2-F12 implementation by G. Knizia and H.-J. Werner, 2008

                   Density fitting integral evaluation by F.R. Manby, 2003,2007, G. Knizia, 2010


 CORETYPE=MIXED


 Generating basis AWCVTZ-JKFIT

 Generating basis AWCVTZ-JKFIT

 Generating basis AWCVTZ-MP2FIT

 Convergence thresholds:  THRVAR = 1.00D-08  THRDEN = 1.00D-06

 Number of active  orbitals:        1 (   1 )
 Number of external orbitals:      22 (  22 )

 Number of N-1 electron functions:               1
 Number of N-2 electron functions:               0
 Number of singly external CSFs:                23
 Number of doubly external CSFs:                 0
 Total number of CSFs:                          23

 Molecular orbitals read from record     2100.2  Type=RHF/CANONICAL (state 1.1)

 Geminal basis:    OPTFULL  GEM_TYPE=SLATER  BETA=0.45  NGEM=6

 Optimizing Gaussian exponents for each gem_beta

 Geminal optimization for beta= 0.4500
 Weight function:   m=0, omega= 0.8601

 Augmented Hessian optimization of geminal fit. Trust ratio= 0.40000
 Convergence reached after  41 iterations. Final gradient= 3.79D-16, Step= 1.15D-06, Delta= 1.48D-09

 Alpha:                 0.06115     0.34638     1.34913     4.63702    17.61101    97.87616
 Coeff:                 0.42815     0.28272     0.13200     0.07291     0.04398     0.02706


 WFN_F12=FIX,EG    DECOUPLE_EXPL=F   HYBRID=0    NOX=F   SEMIINT_F12=T   CORE_SINGLES=F


 AO(A)-basis ORBITAL           loaded. Number of functions:      23
 RI(R)-basis AWCVTZ/JKFIT      loaded. Number of functions:      46
 DF-basis AWCVTZ/JKFIT         loaded. Number of functions:      46

 Screening thresholds:   THRAO=  1.00D-14  THRMO=  1.00D-14  THRPROD=  1.00D-14
                         THRSW=  1.00D-14  THROV=  1.00D-14  THRAOF12= 1.00D-08

 CPU time for one-electron matrices               0.02 sec

 Construction of ABS:
 Pseudo-inverse stability          2.30E-14
 Smallest eigenvalue of S          1.36E-02  (threshold= 1.00E-08)
 Ratio eigmin/eigmax               4.23E-03  (threshold= 1.00E-09)
 Smallest eigenvalue of S kept     1.36E-02  (threshold= 1.36E-02, 0 functions deleted, 46 kept)

 Construction of CABS:
 Pseudo-inverse stability          2.70E-11
 Smallest eigenvalue of S          1.48E-05  (threshold= 1.00E-08)
 Ratio eigmin/eigmax               1.48E-05  (threshold= 1.00E-09)
 Smallest eigenvalue of S kept     1.48E-05  (threshold= 1.48E-05, 0 functions deleted, 46 kept)

 CPU time for basis constructions                 0.00 sec
 CPU time for Fock operator transformation        0.00 sec

                                      TOTAL          ALPHA          BETA    
  Singles Contributions MO        -0.000000000   -0.000000000    0.000000000
  Singles Contributions CABS      -0.000030762   -0.000030762    0.000000000
  Pure DF-RHF relaxation          -0.000030762

 CPU time for RHF CABS relaxation                 0.00 sec
 CPU time for singles (tot)                       0.00 sec

 AO(A)-basis ORBITAL           loaded. Number of functions:      23
 RI(R)-basis AWCVTZ/JKFIT      loaded. Number of functions:      46
 DF-basis AWCVTZ/MP2FIT        loaded. Number of functions:      46

 Screening thresholds:   THRAO=  1.00D-14  THRMO=  1.00D-14  THRPROD=  1.00D-14
                         THRSW=  1.00D-14  THROV=  1.00D-14  THRAOF12= 1.00D-08

 CPU time for transformed integrals               0.01 sec
 CPU time for F12 matrices                        0.00 sec

 Diagonal F12 ansatz with fixed amplitudes:   TS= 0.5000  TT= 0.2500  TN= 0.3750

 ITER.     SQ.NORM      CORR.ENERGY   TOTAL ENERGY  ENERGY CHANGE      VAR         CPU   MICRO    DIIS
   1      1.00000000    -0.00000000    -0.49985194    -3.0762E-05   0.00E+00      0.00  1  1  1   0  0
   2      1.00000000    -0.00000000    -0.49985194     0.0000E+00   0.00E+00      0.00  0  0  0   0  0

 - - Continuing with F12/conv. amplitude coupling turned on.

   3      1.00000000    -0.00000000    -0.49985194     0.0000E+00   0.00E+00      0.00  1  1  1   0  0

 CPU time for iterative RMP2-F12                  0.00 sec


 DF-RMP2-F12 doubles corrections:
 - - - - - - - - - - - - - - - - 
  Approx.                             TOTAL           A-B            A-A            B-B    
  RMP2-F12/3C(FIX)                 0.000000000    0.000000000    0.000000000    0.000000000
  RMP2-F12/3*C(FIX)                0.000000000    0.000000000    0.000000000    0.000000000
  RMP2-F12/3*C(DX)                 0.000000000    0.000000000    0.000000000    0.000000000
  RMP2-F12/3*C(FIX,DX)             0.000000000    0.000000000    0.000000000    0.000000000

 DF-RMP2-F12 doubles energies:
 - - - - - - - - - - - - - - -
  Approx.                             TOTAL           A-B            A-A            B-B    
  RMP2                             0.000000000    0.000000000    0.000000000    0.000000000
  RMP2-F12/3C(FIX)                 0.000000000    0.000000000    0.000000000    0.000000000
  RMP2-F12/3*C(FIX)                0.000000000    0.000000000    0.000000000    0.000000000
  RMP2-F12/3*C(DX)                 0.000000000    0.000000000    0.000000000    0.000000000
  RMP2-F12/3*C(FIX,DX)             0.000000000    0.000000000    0.000000000    0.000000000


  Reference energy                     -0.499821176024
  CABS relaxation correction to RHF    -0.000030761822
  New reference energy                 -0.499851937846

  RMP2-F12 singles (MO) energy         -0.000000000000
  RMP2-F12 pair energy                  0.000000000000
  RMP2-F12 correlation energy           0.000000000000

 !RMP2-F12/3C(FIX) energy              -0.499851937846


 **********************************************************************************************************************************
 DATASETS  * FILE   NREC   LENGTH (MB)   RECORD NAMES
              1      18       28.83       500      610      700      900      950      970     1000      129      960     1100   
                                          VAR    BASINP    GEOM    SYMINP    ZMAT    AOBASIS   BASIS     P2S    ABASIS      S 
                                         1400     1410     1200     1210     1080     1600     1650     1700   
                                           T        V       H0       H01     AOSYM     SMH    MOLCAS    OPER   

              2       5        0.53       700     1000      520     2100     7360   
                                         GEOM     BASIS   MCVARS     RHF    F12ABS    

 PROGRAMS   *        TOTAL   MP2-F12   MP2-F12   MP2-F12   MP2-F12   MP2-F12    DF-MP2     DF-HF       INT
 CPU TIMES  *         7.98      0.08      1.92      1.90      1.83      2.01      0.04      0.01      0.09
 REAL TIME  *         8.43 SEC
 DISK USED  *        30.76 MB
 **********************************************************************************************************************************
 E(5)            =    0.0000000D+00  AU                              

 DO I                   =         6.00000000   


 PROGRAM * RMP2 (Restricted open-shell)     Authors: H.-J. Werner, 2001

                            RMP2-F12 implementation by G. Knizia and H.-J. Werner, 2008

                   Density fitting integral evaluation by F.R. Manby, 2003,2007, G. Knizia, 2010


 CORETYPE=MIXED


 Generating basis AWCVTZ-JKFIT

 Generating basis AWCVTZ-JKFIT

 Generating basis AWCVTZ-MP2FIT

 Convergence thresholds:  THRVAR = 1.00D-08  THRDEN = 1.00D-06

 Number of active  orbitals:        1 (   1 )
 Number of external orbitals:      22 (  22 )

 Number of N-1 electron functions:               1
 Number of N-2 electron functions:               0
 Number of singly external CSFs:                23
 Number of doubly external CSFs:                 0
 Total number of CSFs:                          23

 Molecular orbitals read from record     2100.2  Type=RHF/CANONICAL (state 1.1)

 Geminal basis:    OPTFULL  GEM_TYPE=SLATER  BETA=0.5  NGEM=6

 Optimizing Gaussian exponents for each gem_beta

 Geminal optimization for beta= 0.5000
 Weight function:   m=0, omega= 0.9226

 Augmented Hessian optimization of geminal fit. Trust ratio= 0.40000
 Convergence reached after  40 iterations. Final gradient= 1.09D-16, Step= 2.81D-08, Delta= 1.47D-09

 Alpha:                 0.07111     0.38560     1.48120     5.07096    19.23585   106.86932
 Coeff:                 0.40648     0.28821     0.13857     0.07724     0.04672     0.02877


 WFN_F12=FIX,EG    DECOUPLE_EXPL=F   HYBRID=0    NOX=F   SEMIINT_F12=T   CORE_SINGLES=F


 AO(A)-basis ORBITAL           loaded. Number of functions:      23
 RI(R)-basis AWCVTZ/JKFIT      loaded. Number of functions:      46
 DF-basis AWCVTZ/JKFIT         loaded. Number of functions:      46

 Screening thresholds:   THRAO=  1.00D-14  THRMO=  1.00D-14  THRPROD=  1.00D-14
                         THRSW=  1.00D-14  THROV=  1.00D-14  THRAOF12= 1.00D-08

 CPU time for one-electron matrices               0.02 sec

 Construction of ABS:
 Pseudo-inverse stability          2.30E-14
 Smallest eigenvalue of S          1.36E-02  (threshold= 1.00E-08)
 Ratio eigmin/eigmax               4.23E-03  (threshold= 1.00E-09)
 Smallest eigenvalue of S kept     1.36E-02  (threshold= 1.36E-02, 0 functions deleted, 46 kept)

 Construction of CABS:
 Pseudo-inverse stability          2.70E-11
 Smallest eigenvalue of S          1.48E-05  (threshold= 1.00E-08)
 Ratio eigmin/eigmax               1.48E-05  (threshold= 1.00E-09)
 Smallest eigenvalue of S kept     1.48E-05  (threshold= 1.48E-05, 0 functions deleted, 46 kept)

 CPU time for basis constructions                 0.00 sec
 CPU time for Fock operator transformation        0.00 sec

                                      TOTAL          ALPHA          BETA    
  Singles Contributions MO        -0.000000000   -0.000000000    0.000000000
  Singles Contributions CABS      -0.000030762   -0.000030762    0.000000000
  Pure DF-RHF relaxation          -0.000030762

 CPU time for RHF CABS relaxation                 0.00 sec
 CPU time for singles (tot)                       0.00 sec

 AO(A)-basis ORBITAL           loaded. Number of functions:      23
 RI(R)-basis AWCVTZ/JKFIT      loaded. Number of functions:      46
 DF-basis AWCVTZ/MP2FIT        loaded. Number of functions:      46

 Screening thresholds:   THRAO=  1.00D-14  THRMO=  1.00D-14  THRPROD=  1.00D-14
                         THRSW=  1.00D-14  THROV=  1.00D-14  THRAOF12= 1.00D-08

 CPU time for transformed integrals               0.01 sec
 CPU time for F12 matrices                        0.00 sec

 Diagonal F12 ansatz with fixed amplitudes:   TS= 0.5000  TT= 0.2500  TN= 0.3750

 ITER.     SQ.NORM      CORR.ENERGY   TOTAL ENERGY  ENERGY CHANGE      VAR         CPU   MICRO    DIIS
   1      1.00000000    -0.00000000    -0.49985194    -3.0762E-05   0.00E+00      0.00  1  1  1   0  0
   2      1.00000000    -0.00000000    -0.49985194     0.0000E+00   0.00E+00      0.00  0  0  0   0  0

 - - Continuing with F12/conv. amplitude coupling turned on.

   3      1.00000000    -0.00000000    -0.49985194     0.0000E+00   0.00E+00      0.00  1  1  1   0  0

 CPU time for iterative RMP2-F12                  0.00 sec


 DF-RMP2-F12 doubles corrections:
 - - - - - - - - - - - - - - - - 
  Approx.                             TOTAL           A-B            A-A            B-B    
  RMP2-F12/3C(FIX)                 0.000000000    0.000000000    0.000000000    0.000000000
  RMP2-F12/3*C(FIX)                0.000000000    0.000000000    0.000000000    0.000000000
  RMP2-F12/3*C(DX)                 0.000000000    0.000000000    0.000000000    0.000000000
  RMP2-F12/3*C(FIX,DX)             0.000000000    0.000000000    0.000000000    0.000000000

 DF-RMP2-F12 doubles energies:
 - - - - - - - - - - - - - - -
  Approx.                             TOTAL           A-B            A-A            B-B    
  RMP2                             0.000000000    0.000000000    0.000000000    0.000000000
  RMP2-F12/3C(FIX)                 0.000000000    0.000000000    0.000000000    0.000000000
  RMP2-F12/3*C(FIX)                0.000000000    0.000000000    0.000000000    0.000000000
  RMP2-F12/3*C(DX)                 0.000000000    0.000000000    0.000000000    0.000000000
  RMP2-F12/3*C(FIX,DX)             0.000000000    0.000000000    0.000000000    0.000000000


  Reference energy                     -0.499821176024
  CABS relaxation correction to RHF    -0.000030761822
  New reference energy                 -0.499851937846

  RMP2-F12 singles (MO) energy         -0.000000000000
  RMP2-F12 pair energy                  0.000000000000
  RMP2-F12 correlation energy           0.000000000000

 !RMP2-F12/3C(FIX) energy              -0.499851937846


 **********************************************************************************************************************************
 DATASETS  * FILE   NREC   LENGTH (MB)   RECORD NAMES
              1      18       28.83       500      610      700      900      950      970     1000      129      960     1100   
                                          VAR    BASINP    GEOM    SYMINP    ZMAT    AOBASIS   BASIS     P2S    ABASIS      S 
                                         1400     1410     1200     1210     1080     1600     1650     1700   
                                           T        V       H0       H01     AOSYM     SMH    MOLCAS    OPER   

              2       5        0.53       700     1000      520     2100     7360   
                                         GEOM     BASIS   MCVARS     RHF    F12ABS    

 PROGRAMS   *        TOTAL   MP2-F12   MP2-F12   MP2-F12   MP2-F12   MP2-F12   MP2-F12    DF-MP2     DF-HF       INT
 CPU TIMES  *         8.06      0.08      0.08      1.92      1.90      1.83      2.01      0.04      0.01      0.09
 REAL TIME  *         8.55 SEC
 DISK USED  *        30.76 MB
 **********************************************************************************************************************************
 E(6)            =    0.0000000D+00  AU                              

 DO I                   =         7.00000000   


 PROGRAM * RMP2 (Restricted open-shell)     Authors: H.-J. Werner, 2001

                            RMP2-F12 implementation by G. Knizia and H.-J. Werner, 2008

                   Density fitting integral evaluation by F.R. Manby, 2003,2007, G. Knizia, 2010


 CORETYPE=MIXED


 Generating basis AWCVTZ-JKFIT

 Generating basis AWCVTZ-JKFIT

 Generating basis AWCVTZ-MP2FIT

 Convergence thresholds:  THRVAR = 1.00D-08  THRDEN = 1.00D-06

 Number of active  orbitals:        1 (   1 )
 Number of external orbitals:      22 (  22 )

 Number of N-1 electron functions:               1
 Number of N-2 electron functions:               0
 Number of singly external CSFs:                23
 Number of doubly external CSFs:                 0
 Total number of CSFs:                          23

 Molecular orbitals read from record     2100.2  Type=RHF/CANONICAL (state 1.1)

 Geminal basis:    OPTFULL  GEM_TYPE=SLATER  BETA=0.55  NGEM=6

 Optimizing Gaussian exponents for each gem_beta

 Geminal optimization for beta= 0.5500
 Weight function:   m=0, omega= 0.9832

 Augmented Hessian optimization of geminal fit. Trust ratio= 0.40000
 Convergence reached after  31 iterations. Final gradient= 3.03D-16, Step= 2.04D-08, Delta= 1.46D-09

 Alpha:                 0.08155     0.42555     1.61394     5.50497    20.85835   115.84526
 Coeff:                 0.38698     0.29261     0.14461     0.08130     0.04931     0.03039


 WFN_F12=FIX,EG    DECOUPLE_EXPL=F   HYBRID=0    NOX=F   SEMIINT_F12=T   CORE_SINGLES=F


 AO(A)-basis ORBITAL           loaded. Number of functions:      23
 RI(R)-basis AWCVTZ/JKFIT      loaded. Number of functions:      46
 DF-basis AWCVTZ/JKFIT         loaded. Number of functions:      46

 Screening thresholds:   THRAO=  1.00D-14  THRMO=  1.00D-14  THRPROD=  1.00D-14
                         THRSW=  1.00D-14  THROV=  1.00D-14  THRAOF12= 1.00D-08

 CPU time for one-electron matrices               0.01 sec

 Construction of ABS:
 Pseudo-inverse stability          2.30E-14
 Smallest eigenvalue of S          1.36E-02  (threshold= 1.00E-08)
 Ratio eigmin/eigmax               4.23E-03  (threshold= 1.00E-09)
 Smallest eigenvalue of S kept     1.36E-02  (threshold= 1.36E-02, 0 functions deleted, 46 kept)

 Construction of CABS:
 Pseudo-inverse stability          2.70E-11
 Smallest eigenvalue of S          1.48E-05  (threshold= 1.00E-08)
 Ratio eigmin/eigmax               1.48E-05  (threshold= 1.00E-09)
 Smallest eigenvalue of S kept     1.48E-05  (threshold= 1.48E-05, 0 functions deleted, 46 kept)

 CPU time for basis constructions                 0.00 sec
 CPU time for Fock operator transformation        0.00 sec

                                      TOTAL          ALPHA          BETA    
  Singles Contributions MO        -0.000000000   -0.000000000    0.000000000
  Singles Contributions CABS      -0.000030762   -0.000030762    0.000000000
  Pure DF-RHF relaxation          -0.000030762

 CPU time for RHF CABS relaxation                 0.01 sec
 CPU time for singles (tot)                       0.01 sec

 AO(A)-basis ORBITAL           loaded. Number of functions:      23
 RI(R)-basis AWCVTZ/JKFIT      loaded. Number of functions:      46
 DF-basis AWCVTZ/MP2FIT        loaded. Number of functions:      46

 Screening thresholds:   THRAO=  1.00D-14  THRMO=  1.00D-14  THRPROD=  1.00D-14
                         THRSW=  1.00D-14  THROV=  1.00D-14  THRAOF12= 1.00D-08

 CPU time for transformed integrals               0.01 sec
 CPU time for F12 matrices                        0.00 sec

 Diagonal F12 ansatz with fixed amplitudes:   TS= 0.5000  TT= 0.2500  TN= 0.3750

 ITER.     SQ.NORM      CORR.ENERGY   TOTAL ENERGY  ENERGY CHANGE      VAR         CPU   MICRO    DIIS
   1      1.00000000    -0.00000000    -0.49985194    -3.0762E-05   0.00E+00      0.00  1  1  1   0  0
   2      1.00000000    -0.00000000    -0.49985194     0.0000E+00   0.00E+00      0.00  0  0  0   0  0

 - - Continuing with F12/conv. amplitude coupling turned on.

   3      1.00000000    -0.00000000    -0.49985194     0.0000E+00   0.00E+00      0.00  1  1  1   0  0

 CPU time for iterative RMP2-F12                  0.00 sec


 DF-RMP2-F12 doubles corrections:
 - - - - - - - - - - - - - - - - 
  Approx.                             TOTAL           A-B            A-A            B-B    
  RMP2-F12/3C(FIX)                 0.000000000    0.000000000    0.000000000    0.000000000
  RMP2-F12/3*C(FIX)                0.000000000    0.000000000    0.000000000    0.000000000
  RMP2-F12/3*C(DX)                 0.000000000    0.000000000    0.000000000    0.000000000
  RMP2-F12/3*C(FIX,DX)             0.000000000    0.000000000    0.000000000    0.000000000

 DF-RMP2-F12 doubles energies:
 - - - - - - - - - - - - - - -
  Approx.                             TOTAL           A-B            A-A            B-B    
  RMP2                             0.000000000    0.000000000    0.000000000    0.000000000
  RMP2-F12/3C(FIX)                 0.000000000    0.000000000    0.000000000    0.000000000
  RMP2-F12/3*C(FIX)                0.000000000    0.000000000    0.000000000    0.000000000
  RMP2-F12/3*C(DX)                 0.000000000    0.000000000    0.000000000    0.000000000
  RMP2-F12/3*C(FIX,DX)             0.000000000    0.000000000    0.000000000    0.000000000


  Reference energy                     -0.499821176024
  CABS relaxation correction to RHF    -0.000030761822
  New reference energy                 -0.499851937846

  RMP2-F12 singles (MO) energy         -0.000000000000
  RMP2-F12 pair energy                  0.000000000000
  RMP2-F12 correlation energy           0.000000000000

 !RMP2-F12/3C(FIX) energy              -0.499851937846


 **********************************************************************************************************************************
 DATASETS  * FILE   NREC   LENGTH (MB)   RECORD NAMES
              1      18       28.83       500      610      700      900      950      970     1000      129      960     1100   
                                          VAR    BASINP    GEOM    SYMINP    ZMAT    AOBASIS   BASIS     P2S    ABASIS      S 
                                         1400     1410     1200     1210     1080     1600     1650     1700   
                                           T        V       H0       H01     AOSYM     SMH    MOLCAS    OPER   

              2       5        0.53       700     1000      520     2100     7360   
                                         GEOM     BASIS   MCVARS     RHF    F12ABS    

 PROGRAMS   *        TOTAL   MP2-F12   MP2-F12   MP2-F12   MP2-F12   MP2-F12   MP2-F12   MP2-F12    DF-MP2     DF-HF       INT
 CPU TIMES  *         8.13      0.06      0.08      0.08      1.92      1.90      1.83      2.01      0.04      0.01      0.09
 REAL TIME  *         8.67 SEC
 DISK USED  *        30.76 MB
 **********************************************************************************************************************************
 E(7)            =    0.0000000D+00  AU                              

 DO I                   =         8.00000000   


 PROGRAM * RMP2 (Restricted open-shell)     Authors: H.-J. Werner, 2001

                            RMP2-F12 implementation by G. Knizia and H.-J. Werner, 2008

                   Density fitting integral evaluation by F.R. Manby, 2003,2007, G. Knizia, 2010


 CORETYPE=MIXED


 Generating basis AWCVTZ-JKFIT

 Generating basis AWCVTZ-JKFIT

 Generating basis AWCVTZ-MP2FIT

 Convergence thresholds:  THRVAR = 1.00D-08  THRDEN = 1.00D-06

 Number of active  orbitals:        1 (   1 )
 Number of external orbitals:      22 (  22 )

 Number of N-1 electron functions:               1
 Number of N-2 electron functions:               0
 Number of singly external CSFs:                23
 Number of doubly external CSFs:                 0
 Total number of CSFs:                          23

 Molecular orbitals read from record     2100.2  Type=RHF/CANONICAL (state 1.1)

 Geminal basis:    OPTFULL  GEM_TYPE=SLATER  BETA=0.6  NGEM=6

 Optimizing Gaussian exponents for each gem_beta

 Geminal optimization for beta= 0.6000
 Weight function:   m=0, omega= 1.0419

 Augmented Hessian optimization of geminal fit. Trust ratio= 0.40000
 Convergence reached after  29 iterations. Final gradient= 1.77D-16, Step= 2.82D-08, Delta= 1.44D-09

 Alpha:                 0.09247     0.46625     1.74753     5.93982    22.48149   124.82072
 Coeff:                 0.36930     0.29611     0.15017     0.08514     0.05178     0.03193


 WFN_F12=FIX,EG    DECOUPLE_EXPL=F   HYBRID=0    NOX=F   SEMIINT_F12=T   CORE_SINGLES=F


 AO(A)-basis ORBITAL           loaded. Number of functions:      23
 RI(R)-basis AWCVTZ/JKFIT      loaded. Number of functions:      46
 DF-basis AWCVTZ/JKFIT         loaded. Number of functions:      46

 Screening thresholds:   THRAO=  1.00D-14  THRMO=  1.00D-14  THRPROD=  1.00D-14
                         THRSW=  1.00D-14  THROV=  1.00D-14  THRAOF12= 1.00D-08

 CPU time for one-electron matrices               0.02 sec

 Construction of ABS:
 Pseudo-inverse stability          2.30E-14
 Smallest eigenvalue of S          1.36E-02  (threshold= 1.00E-08)
 Ratio eigmin/eigmax               4.23E-03  (threshold= 1.00E-09)
 Smallest eigenvalue of S kept     1.36E-02  (threshold= 1.36E-02, 0 functions deleted, 46 kept)

 Construction of CABS:
 Pseudo-inverse stability          2.70E-11
 Smallest eigenvalue of S          1.48E-05  (threshold= 1.00E-08)
 Ratio eigmin/eigmax               1.48E-05  (threshold= 1.00E-09)
 Smallest eigenvalue of S kept     1.48E-05  (threshold= 1.48E-05, 0 functions deleted, 46 kept)

 CPU time for basis constructions                 0.00 sec
 CPU time for Fock operator transformation        0.00 sec

                                      TOTAL          ALPHA          BETA    
  Singles Contributions MO        -0.000000000   -0.000000000    0.000000000
  Singles Contributions CABS      -0.000030762   -0.000030762    0.000000000
  Pure DF-RHF relaxation          -0.000030762

 CPU time for RHF CABS relaxation                 0.00 sec
 CPU time for singles (tot)                       0.00 sec

 AO(A)-basis ORBITAL           loaded. Number of functions:      23
 RI(R)-basis AWCVTZ/JKFIT      loaded. Number of functions:      46
 DF-basis AWCVTZ/MP2FIT        loaded. Number of functions:      46

 Screening thresholds:   THRAO=  1.00D-14  THRMO=  1.00D-14  THRPROD=  1.00D-14
                         THRSW=  1.00D-14  THROV=  1.00D-14  THRAOF12= 1.00D-08

 CPU time for transformed integrals               0.02 sec
 CPU time for F12 matrices                        0.00 sec

 Diagonal F12 ansatz with fixed amplitudes:   TS= 0.5000  TT= 0.2500  TN= 0.3750

 ITER.     SQ.NORM      CORR.ENERGY   TOTAL ENERGY  ENERGY CHANGE      VAR         CPU   MICRO    DIIS
   1      1.00000000    -0.00000000    -0.49985194    -3.0762E-05   0.00E+00      0.00  1  1  1   0  0
   2      1.00000000    -0.00000000    -0.49985194     0.0000E+00   0.00E+00      0.00  0  0  0   0  0

 - - Continuing with F12/conv. amplitude coupling turned on.

   3      1.00000000    -0.00000000    -0.49985194     0.0000E+00   0.00E+00      0.00  1  1  1   0  0

 CPU time for iterative RMP2-F12                  0.00 sec


 DF-RMP2-F12 doubles corrections:
 - - - - - - - - - - - - - - - - 
  Approx.                             TOTAL           A-B            A-A            B-B    
  RMP2-F12/3C(FIX)                 0.000000000    0.000000000    0.000000000    0.000000000
  RMP2-F12/3*C(FIX)                0.000000000    0.000000000    0.000000000    0.000000000
  RMP2-F12/3*C(DX)                 0.000000000    0.000000000    0.000000000    0.000000000
  RMP2-F12/3*C(FIX,DX)             0.000000000    0.000000000    0.000000000    0.000000000

 DF-RMP2-F12 doubles energies:
 - - - - - - - - - - - - - - -
  Approx.                             TOTAL           A-B            A-A            B-B    
  RMP2                             0.000000000    0.000000000    0.000000000    0.000000000
  RMP2-F12/3C(FIX)                 0.000000000    0.000000000    0.000000000    0.000000000
  RMP2-F12/3*C(FIX)                0.000000000    0.000000000    0.000000000    0.000000000
  RMP2-F12/3*C(DX)                 0.000000000    0.000000000    0.000000000    0.000000000
  RMP2-F12/3*C(FIX,DX)             0.000000000    0.000000000    0.000000000    0.000000000


  Reference energy                     -0.499821176024
  CABS relaxation correction to RHF    -0.000030761822
  New reference energy                 -0.499851937846

  RMP2-F12 singles (MO) energy         -0.000000000000
  RMP2-F12 pair energy                  0.000000000000
  RMP2-F12 correlation energy           0.000000000000

 !RMP2-F12/3C(FIX) energy              -0.499851937846


 **********************************************************************************************************************************
 DATASETS  * FILE   NREC   LENGTH (MB)   RECORD NAMES
              1      18       28.83       500      610      700      900      950      970     1000      129      960     1100   
                                          VAR    BASINP    GEOM    SYMINP    ZMAT    AOBASIS   BASIS     P2S    ABASIS      S 
                                         1400     1410     1200     1210     1080     1600     1650     1700   
                                           T        V       H0       H01     AOSYM     SMH    MOLCAS    OPER   

              2       5        0.53       700     1000      520     2100     7360   
                                         GEOM     BASIS   MCVARS     RHF    F12ABS    

 PROGRAMS   *        TOTAL   MP2-F12   MP2-F12   MP2-F12   MP2-F12   MP2-F12   MP2-F12   MP2-F12   MP2-F12    DF-MP2     DF-HF
 CPU TIMES  *         8.21      0.08      0.06      0.08      0.08      1.92      1.90      1.83      2.01      0.04      0.01
 REAL TIME  *         8.78 SEC
 DISK USED  *        30.76 MB
 **********************************************************************************************************************************
 E(8)            =    0.0000000D+00  AU                              

 DO I                   =         9.00000000   


 PROGRAM * RMP2 (Restricted open-shell)     Authors: H.-J. Werner, 2001

                            RMP2-F12 implementation by G. Knizia and H.-J. Werner, 2008

                   Density fitting integral evaluation by F.R. Manby, 2003,2007, G. Knizia, 2010


 CORETYPE=MIXED


 Generating basis AWCVTZ-JKFIT

 Generating basis AWCVTZ-JKFIT

 Generating basis AWCVTZ-MP2FIT

 Convergence thresholds:  THRVAR = 1.00D-08  THRDEN = 1.00D-06

 Number of active  orbitals:        1 (   1 )
 Number of external orbitals:      22 (  22 )

 Number of N-1 electron functions:               1
 Number of N-2 electron functions:               0
 Number of singly external CSFs:                23
 Number of doubly external CSFs:                 0
 Total number of CSFs:                          23

 Molecular orbitals read from record     2100.2  Type=RHF/CANONICAL (state 1.1)

 Geminal basis:    OPTFULL  GEM_TYPE=SLATER  BETA=0.65  NGEM=6

 Optimizing Gaussian exponents for each gem_beta

 Geminal optimization for beta= 0.6500
 Weight function:   m=0, omega= 1.0990

 Augmented Hessian optimization of geminal fit. Trust ratio= 0.40000
 Convergence reached after  29 iterations. Final gradient= 3.50D-16, Step= 6.92D-07, Delta= 1.42D-09

 Alpha:                 0.10383     0.50770     1.88211     6.37608    24.10763   133.80901
 Coeff:                 0.35321     0.29888     0.15533     0.08877     0.05413     0.03341


 WFN_F12=FIX,EG    DECOUPLE_EXPL=F   HYBRID=0    NOX=F   SEMIINT_F12=T   CORE_SINGLES=F


 AO(A)-basis ORBITAL           loaded. Number of functions:      23
 RI(R)-basis AWCVTZ/JKFIT      loaded. Number of functions:      46
 DF-basis AWCVTZ/JKFIT         loaded. Number of functions:      46

 Screening thresholds:   THRAO=  1.00D-14  THRMO=  1.00D-14  THRPROD=  1.00D-14
                         THRSW=  1.00D-14  THROV=  1.00D-14  THRAOF12= 1.00D-08

 CPU time for one-electron matrices               0.01 sec

 Construction of ABS:
 Pseudo-inverse stability          2.30E-14
 Smallest eigenvalue of S          1.36E-02  (threshold= 1.00E-08)
 Ratio eigmin/eigmax               4.23E-03  (threshold= 1.00E-09)
 Smallest eigenvalue of S kept     1.36E-02  (threshold= 1.36E-02, 0 functions deleted, 46 kept)

 Construction of CABS:
 Pseudo-inverse stability          2.70E-11
 Smallest eigenvalue of S          1.48E-05  (threshold= 1.00E-08)
 Ratio eigmin/eigmax               1.48E-05  (threshold= 1.00E-09)
 Smallest eigenvalue of S kept     1.48E-05  (threshold= 1.48E-05, 0 functions deleted, 46 kept)

 CPU time for basis constructions                 0.01 sec
 CPU time for Fock operator transformation        0.00 sec

                                      TOTAL          ALPHA          BETA    
  Singles Contributions MO        -0.000000000   -0.000000000    0.000000000
  Singles Contributions CABS      -0.000030762   -0.000030762    0.000000000
  Pure DF-RHF relaxation          -0.000030762

 CPU time for RHF CABS relaxation                 0.00 sec
 CPU time for singles (tot)                       0.00 sec

 AO(A)-basis ORBITAL           loaded. Number of functions:      23
 RI(R)-basis AWCVTZ/JKFIT      loaded. Number of functions:      46
 DF-basis AWCVTZ/MP2FIT        loaded. Number of functions:      46

 Screening thresholds:   THRAO=  1.00D-14  THRMO=  1.00D-14  THRPROD=  1.00D-14
                         THRSW=  1.00D-14  THROV=  1.00D-14  THRAOF12= 1.00D-08

 CPU time for transformed integrals               0.01 sec
 CPU time for F12 matrices                        0.00 sec

 Diagonal F12 ansatz with fixed amplitudes:   TS= 0.5000  TT= 0.2500  TN= 0.3750

 ITER.     SQ.NORM      CORR.ENERGY   TOTAL ENERGY  ENERGY CHANGE      VAR         CPU   MICRO    DIIS
   1      1.00000000    -0.00000000    -0.49985194    -3.0762E-05   0.00E+00      0.00  1  1  1   0  0
   2      1.00000000    -0.00000000    -0.49985194     0.0000E+00   0.00E+00      0.00  0  0  0   0  0

 - - Continuing with F12/conv. amplitude coupling turned on.

   3      1.00000000    -0.00000000    -0.49985194     0.0000E+00   0.00E+00      0.00  1  1  1   0  0

 CPU time for iterative RMP2-F12                  0.00 sec


 DF-RMP2-F12 doubles corrections:
 - - - - - - - - - - - - - - - - 
  Approx.                             TOTAL           A-B            A-A            B-B    
  RMP2-F12/3C(FIX)                 0.000000000    0.000000000    0.000000000    0.000000000
  RMP2-F12/3*C(FIX)                0.000000000    0.000000000    0.000000000    0.000000000
  RMP2-F12/3*C(DX)                 0.000000000    0.000000000    0.000000000    0.000000000
  RMP2-F12/3*C(FIX,DX)             0.000000000    0.000000000    0.000000000    0.000000000

 DF-RMP2-F12 doubles energies:
 - - - - - - - - - - - - - - -
  Approx.                             TOTAL           A-B            A-A            B-B    
  RMP2                             0.000000000    0.000000000    0.000000000    0.000000000
  RMP2-F12/3C(FIX)                 0.000000000    0.000000000    0.000000000    0.000000000
  RMP2-F12/3*C(FIX)                0.000000000    0.000000000    0.000000000    0.000000000
  RMP2-F12/3*C(DX)                 0.000000000    0.000000000    0.000000000    0.000000000
  RMP2-F12/3*C(FIX,DX)             0.000000000    0.000000000    0.000000000    0.000000000


  Reference energy                     -0.499821176024
  CABS relaxation correction to RHF    -0.000030761822
  New reference energy                 -0.499851937846

  RMP2-F12 singles (MO) energy         -0.000000000000
  RMP2-F12 pair energy                  0.000000000000
  RMP2-F12 correlation energy           0.000000000000

 !RMP2-F12/3C(FIX) energy              -0.499851937846


 **********************************************************************************************************************************
 DATASETS  * FILE   NREC   LENGTH (MB)   RECORD NAMES
              1      18       28.83       500      610      700      900      950      970     1000      129      960     1100   
                                          VAR    BASINP    GEOM    SYMINP    ZMAT    AOBASIS   BASIS     P2S    ABASIS      S 
                                         1400     1410     1200     1210     1080     1600     1650     1700   
                                           T        V       H0       H01     AOSYM     SMH    MOLCAS    OPER   

              2       5        0.53       700     1000      520     2100     7360   
                                         GEOM     BASIS   MCVARS     RHF    F12ABS    

 PROGRAMS   *        TOTAL   MP2-F12   MP2-F12   MP2-F12   MP2-F12   MP2-F12   MP2-F12   MP2-F12   MP2-F12   MP2-F12    DF-MP2
 CPU TIMES  *         8.28      0.08      0.08      0.06      0.08      0.08      1.92      1.90      1.83      2.01      0.04
 REAL TIME  *         8.89 SEC
 DISK USED  *        30.76 MB
 **********************************************************************************************************************************
 E(9)            =    0.0000000D+00  AU                              

 DO I                   =        10.00000000   


 PROGRAM * RMP2 (Restricted open-shell)     Authors: H.-J. Werner, 2001

                            RMP2-F12 implementation by G. Knizia and H.-J. Werner, 2008

                   Density fitting integral evaluation by F.R. Manby, 2003,2007, G. Knizia, 2010


 CORETYPE=MIXED


 Generating basis AWCVTZ-JKFIT

 Generating basis AWCVTZ-JKFIT

 Generating basis AWCVTZ-MP2FIT

 Convergence thresholds:  THRVAR = 1.00D-08  THRDEN = 1.00D-06

 Number of active  orbitals:        1 (   1 )
 Number of external orbitals:      22 (  22 )

 Number of N-1 electron functions:               1
[...]

                                      TOTAL          ALPHA          BETA    
  Singles Contributions MO        -0.000000000   -0.000000000    0.000000000
  Singles Contributions CABS      -0.000030762   -0.000030762    0.000000000
  Pure DF-RHF relaxation          -0.000030762

 CPU time for RHF CABS relaxation                 0.00 sec
 CPU time for singles (tot)                       0.00 sec

 AO(A)-basis ORBITAL           loaded. Number of functions:      23
 RI(R)-basis AWCVTZ/JKFIT      loaded. Number of functions:      46
 DF-basis AWCVTZ/MP2FIT        loaded. Number of functions:      46

 Screening thresholds:   THRAO=  1.00D-14  THRMO=  1.00D-14  THRPROD=  1.00D-14
                         THRSW=  1.00D-14  THROV=  1.00D-14  THRAOF12= 1.00D-08

 CPU time for transformed integrals               0.01 sec
 CPU time for F12 matrices                        0.00 sec

 Diagonal F12 ansatz with fixed amplitudes:   TS= 0.5000  TT= 0.2500  TN= 0.3750

 ITER.     SQ.NORM      CORR.ENERGY   TOTAL ENERGY  ENERGY CHANGE      VAR         CPU   MICRO    DIIS
   1      1.00000000    -0.00000000    -0.49985194    -3.0762E-05   0.00E+00      0.00  1  1  1   0  0
   2      1.00000000    -0.00000000    -0.49985194     0.0000E+00   0.00E+00      0.00  0  0  0   0  0

 - - Continuing with F12/conv. amplitude coupling turned on.

   3      1.00000000    -0.00000000    -0.49985194     0.0000E+00   0.00E+00      0.00  1  1  1   0  0

 CPU time for iterative RMP2-F12                  0.00 sec


 DF-RMP2-F12 doubles corrections:
 - - - - - - - - - - - - - - - - 
  Approx.                             TOTAL           A-B            A-A            B-B    
  RMP2-F12/3C(FIX)                 0.000000000    0.000000000    0.000000000    0.000000000
  RMP2-F12/3*C(FIX)                0.000000000    0.000000000    0.000000000    0.000000000
  RMP2-F12/3*C(DX)                 0.000000000    0.000000000    0.000000000    0.000000000
  RMP2-F12/3*C(FIX,DX)             0.000000000    0.000000000    0.000000000    0.000000000

 DF-RMP2-F12 doubles energies:
 - - - - - - - - - - - - - - -
  Approx.                             TOTAL           A-B            A-A            B-B    
  RMP2                             0.000000000    0.000000000    0.000000000    0.000000000
  RMP2-F12/3C(FIX)                 0.000000000    0.000000000    0.000000000    0.000000000
  RMP2-F12/3*C(FIX)                0.000000000    0.000000000    0.000000000    0.000000000
  RMP2-F12/3*C(DX)                 0.000000000    0.000000000    0.000000000    0.000000000
  RMP2-F12/3*C(FIX,DX)             0.000000000    0.000000000    0.000000000    0.000000000


  Reference energy                     -0.499821176024
  CABS relaxation correction to RHF    -0.000030761822
  New reference energy                 -0.499851937846

  RMP2-F12 singles (MO) energy         -0.000000000000
  RMP2-F12 pair energy                  0.000000000000
  RMP2-F12 correlation energy           0.000000000000

 !RMP2-F12/3C(FIX) energy              -0.499851937846


 **********************************************************************************************************************************
 DATASETS  * FILE   NREC   LENGTH (MB)   RECORD NAMES
              1      18       28.83       500      610      700      900      950      970     1000      129      960     1100   
                                          VAR    BASINP    GEOM    SYMINP    ZMAT    AOBASIS   BASIS     P2S    ABASIS      S 
                                         1400     1410     1200     1210     1080     1600     1650     1700   
                                           T        V       H0       H01     AOSYM     SMH    MOLCAS    OPER   

              2       5        0.53       700     1000      520     2100     7360   
                                         GEOM     BASIS   MCVARS     RHF    F12ABS    

 PROGRAMS   *        TOTAL   MP2-F12   MP2-F12   MP2-F12   MP2-F12   MP2-F12   MP2-F12   MP2-F12   MP2-F12   MP2-F12   MP2-F12
 CPU TIMES  *        11.70      0.10      0.10      0.10      0.09      0.09      0.09      0.08      0.08      0.08      0.08
 REAL TIME  *        13.93 SEC
 DISK USED  *        30.76 MB
 **********************************************************************************************************************************
 E(53)           =    0.0000000D+00  AU                              

 DO I                   =        54.00000000   


 PROGRAM * RMP2 (Restricted open-shell)     Authors: H.-J. Werner, 2001

                            RMP2-F12 implementation by G. Knizia and H.-J. Werner, 2008

                   Density fitting integral evaluation by F.R. Manby, 2003,2007, G. Knizia, 2010


 CORETYPE=MIXED


 Generating basis AWCVTZ-JKFIT

 Generating basis AWCVTZ-JKFIT

 Generating basis AWCVTZ-MP2FIT

 Convergence thresholds:  THRVAR = 1.00D-08  THRDEN = 1.00D-06

 Number of active  orbitals:        1 (   1 )
 Number of external orbitals:      22 (  22 )

 Number of N-1 electron functions:               1
 Number of N-2 electron functions:               0
 Number of singly external CSFs:                23
 Number of doubly external CSFs:                 0
 Total number of CSFs:                          23

 Molecular orbitals read from record     2100.2  Type=RHF/CANONICAL (state 1.1)

 Geminal basis:    OPTFULL  GEM_TYPE=SLATER  BETA=2.9  NGEM=6

 Optimizing Gaussian exponents for each gem_beta

 Geminal optimization for beta= 2.9000
 Weight function:   m=0, omega= 2.9784

 Augmented Hessian optimization of geminal fit. Trust ratio= 0.40000
 Convergence reached after 124 iterations. Final gradient= 2.19D-18, Step= 2.71D-08, Delta= 6.59D-10

 Alpha:                 1.00239     3.15356     9.55455    30.09138   110.99613   611.55178
 Coeff:                 0.11898     0.26442     0.23611     0.16714     0.10991     0.06942


 WFN_F12=FIX,EG    DECOUPLE_EXPL=F   HYBRID=0    NOX=F   SEMIINT_F12=T   CORE_SINGLES=F


 AO(A)-basis ORBITAL           loaded. Number of functions:      23
 RI(R)-basis AWCVTZ/JKFIT      loaded. Number of functions:      46
 DF-basis AWCVTZ/JKFIT         loaded. Number of functions:      46

 Screening thresholds:   THRAO=  1.00D-14  THRMO=  1.00D-14  THRPROD=  1.00D-14
                         THRSW=  1.00D-14  THROV=  1.00D-14  THRAOF12= 1.00D-08

 CPU time for one-electron matrices               0.02 sec

 Construction of ABS:
 Pseudo-inverse stability          2.30E-14
 Smallest eigenvalue of S          1.36E-02  (threshold= 1.00E-08)
 Ratio eigmin/eigmax               4.23E-03  (threshold= 1.00E-09)
 Smallest eigenvalue of S kept     1.36E-02  (threshold= 1.36E-02, 0 functions deleted, 46 kept)

 Construction of CABS:
 Pseudo-inverse stability          2.70E-11
 Smallest eigenvalue of S          1.48E-05  (threshold= 1.00E-08)
 Ratio eigmin/eigmax               1.48E-05  (threshold= 1.00E-09)
 Smallest eigenvalue of S kept     1.48E-05  (threshold= 1.48E-05, 0 functions deleted, 46 kept)

 CPU time for basis constructions                 0.00 sec
 CPU time for Fock operator transformation        0.00 sec

                                      TOTAL          ALPHA          BETA    
  Singles Contributions MO        -0.000000000   -0.000000000    0.000000000
  Singles Contributions CABS      -0.000030762   -0.000030762    0.000000000
  Pure DF-RHF relaxation          -0.000030762

 CPU time for RHF CABS relaxation                 0.00 sec
 CPU time for singles (tot)                       0.00 sec

 AO(A)-basis ORBITAL           loaded. Number of functions:      23
 RI(R)-basis AWCVTZ/JKFIT      loaded. Number of functions:      46
 DF-basis AWCVTZ/MP2FIT        loaded. Number of functions:      46

 Screening thresholds:   THRAO=  1.00D-14  THRMO=  1.00D-14  THRPROD=  1.00D-14
                         THRSW=  1.00D-14  THROV=  1.00D-14  THRAOF12= 1.00D-08

 CPU time for transformed integrals               0.02 sec
 CPU time for F12 matrices                        0.00 sec

 Diagonal F12 ansatz with fixed amplitudes:   TS= 0.5000  TT= 0.2500  TN= 0.3750

 ITER.     SQ.NORM      CORR.ENERGY   TOTAL ENERGY  ENERGY CHANGE      VAR         CPU   MICRO    DIIS
   1      1.00000000    -0.00000000    -0.49985194    -3.0762E-05   0.00E+00      0.00  1  1  1   0  0
   2      1.00000000    -0.00000000    -0.49985194     0.0000E+00   0.00E+00      0.00  0  0  0   0  0

 - - Continuing with F12/conv. amplitude coupling turned on.

   3      1.00000000    -0.00000000    -0.49985194     0.0000E+00   0.00E+00      0.00  1  1  1   0  0

 CPU time for iterative RMP2-F12                  0.00 sec


 DF-RMP2-F12 doubles corrections:
 - - - - - - - - - - - - - - - - 
  Approx.                             TOTAL           A-B            A-A            B-B    
  RMP2-F12/3C(FIX)                 0.000000000    0.000000000    0.000000000    0.000000000
  RMP2-F12/3*C(FIX)                0.000000000    0.000000000    0.000000000    0.000000000
  RMP2-F12/3*C(DX)                 0.000000000    0.000000000    0.000000000    0.000000000
  RMP2-F12/3*C(FIX,DX)             0.000000000    0.000000000    0.000000000    0.000000000

 DF-RMP2-F12 doubles energies:
 - - - - - - - - - - - - - - -
  Approx.                             TOTAL           A-B            A-A            B-B    
  RMP2                             0.000000000    0.000000000    0.000000000    0.000000000
  RMP2-F12/3C(FIX)                 0.000000000    0.000000000    0.000000000    0.000000000
  RMP2-F12/3*C(FIX)                0.000000000    0.000000000    0.000000000    0.000000000
  RMP2-F12/3*C(DX)                 0.000000000    0.000000000    0.000000000    0.000000000
  RMP2-F12/3*C(FIX,DX)             0.000000000    0.000000000    0.000000000    0.000000000


  Reference energy                     -0.499821176024
  CABS relaxation correction to RHF    -0.000030761822
  New reference energy                 -0.499851937846

  RMP2-F12 singles (MO) energy         -0.000000000000
  RMP2-F12 pair energy                  0.000000000000
  RMP2-F12 correlation energy           0.000000000000

 !RMP2-F12/3C(FIX) energy              -0.499851937846


 **********************************************************************************************************************************
 DATASETS  * FILE   NREC   LENGTH (MB)   RECORD NAMES
              1      18       28.83       500      610      700      900      950      970     1000      129      960     1100   
                                          VAR    BASINP    GEOM    SYMINP    ZMAT    AOBASIS   BASIS     P2S    ABASIS      S 
                                         1400     1410     1200     1210     1080     1600     1650     1700   
                                           T        V       H0       H01     AOSYM     SMH    MOLCAS    OPER   

              2       5        0.53       700     1000      520     2100     7360   
                                         GEOM     BASIS   MCVARS     RHF    F12ABS    

 PROGRAMS   *        TOTAL   MP2-F12   MP2-F12   MP2-F12   MP2-F12   MP2-F12   MP2-F12   MP2-F12   MP2-F12   MP2-F12   MP2-F12
 CPU TIMES  *        11.80      0.10      0.10      0.10      0.10      0.09      0.09      0.09      0.08      0.08      0.08
 REAL TIME  *        14.06 SEC
 DISK USED  *        30.76 MB
 **********************************************************************************************************************************
 E(54)           =    0.0000000D+00  AU                              

 DO I                   =        55.00000000   


 PROGRAM * RMP2 (Restricted open-shell)     Authors: H.-J. Werner, 2001

                            RMP2-F12 implementation by G. Knizia and H.-J. Werner, 2008

                   Density fitting integral evaluation by F.R. Manby, 2003,2007, G. Knizia, 2010


 CORETYPE=MIXED


 Generating basis AWCVTZ-JKFIT

 Generating basis AWCVTZ-JKFIT

 Generating basis AWCVTZ-MP2FIT

 Convergence thresholds:  THRVAR = 1.00D-08  THRDEN = 1.00D-06

 Number of active  orbitals:        1 (   1 )
 Number of external orbitals:      22 (  22 )

 Number of N-1 electron functions:               1
 Number of N-2 electron functions:               0
 Number of singly external CSFs:                23
 Number of doubly external CSFs:                 0
 Total number of CSFs:                          23

 Molecular orbitals read from record     2100.2  Type=RHF/CANONICAL (state 1.1)

 Geminal basis:    OPTFULL  GEM_TYPE=SLATER  BETA=2.95  NGEM=6

 Optimizing Gaussian exponents for each gem_beta

 Geminal optimization for beta= 2.9500
 Weight function:   m=0, omega= 3.0125

 Augmented Hessian optimization of geminal fit. Trust ratio= 0.40000
 Convergence reached after 132 iterations. Final gradient= 4.57D-18, Step= 3.73D-08, Delta= 6.48D-10

 Alpha:                 1.03016     3.22945     9.76491    30.72775   113.30825   624.23107
 Coeff:                 0.11727     0.26329     0.23665     0.16803     0.11062     0.06990


 WFN_F12=FIX,EG    DECOUPLE_EXPL=F   HYBRID=0    NOX=F   SEMIINT_F12=T   CORE_SINGLES=F


 AO(A)-basis ORBITAL           loaded. Number of functions:      23
 RI(R)-basis AWCVTZ/JKFIT      loaded. Number of functions:      46
 DF-basis AWCVTZ/JKFIT         loaded. Number of functions:      46

 Screening thresholds:   THRAO=  1.00D-14  THRMO=  1.00D-14  THRPROD=  1.00D-14
                         THRSW=  1.00D-14  THROV=  1.00D-14  THRAOF12= 1.00D-08

 CPU time for one-electron matrices               0.01 sec

 Construction of ABS:
 Pseudo-inverse stability          2.30E-14
 Smallest eigenvalue of S          1.36E-02  (threshold= 1.00E-08)
 Ratio eigmin/eigmax               4.23E-03  (threshold= 1.00E-09)
 Smallest eigenvalue of S kept     1.36E-02  (threshold= 1.36E-02, 0 functions deleted, 46 kept)

 Construction of CABS:
 Pseudo-inverse stability          2.70E-11
 Smallest eigenvalue of S          1.48E-05  (threshold= 1.00E-08)
 Ratio eigmin/eigmax               1.48E-05  (threshold= 1.00E-09)
 Smallest eigenvalue of S kept     1.48E-05  (threshold= 1.48E-05, 0 functions deleted, 46 kept)

 CPU time for basis constructions                 0.01 sec
 CPU time for Fock operator transformation        0.00 sec

                                      TOTAL          ALPHA          BETA    
  Singles Contributions MO        -0.000000000   -0.000000000    0.000000000
  Singles Contributions CABS      -0.000030762   -0.000030762    0.000000000
  Pure DF-RHF relaxation          -0.000030762

 CPU time for RHF CABS relaxation                 0.00 sec
 CPU time for singles (tot)                       0.00 sec

 AO(A)-basis ORBITAL           loaded. Number of functions:      23
 RI(R)-basis AWCVTZ/JKFIT      loaded. Number of functions:      46
 DF-basis AWCVTZ/MP2FIT        loaded. Number of functions:      46

 Screening thresholds:   THRAO=  1.00D-14  THRMO=  1.00D-14  THRPROD=  1.00D-14
                         THRSW=  1.00D-14  THROV=  1.00D-14  THRAOF12= 1.00D-08

 CPU time for transformed integrals               0.01 sec
 CPU time for F12 matrices                        0.00 sec

 Diagonal F12 ansatz with fixed amplitudes:   TS= 0.5000  TT= 0.2500  TN= 0.3750

 ITER.     SQ.NORM      CORR.ENERGY   TOTAL ENERGY  ENERGY CHANGE      VAR         CPU   MICRO    DIIS
   1      1.00000000    -0.00000000    -0.49985194    -3.0762E-05   0.00E+00      0.00  1  1  1   0  0
   2      1.00000000    -0.00000000    -0.49985194     0.0000E+00   0.00E+00      0.00  0  0  0   0  0

 - - Continuing with F12/conv. amplitude coupling turned on.

   3      1.00000000    -0.00000000    -0.49985194     0.0000E+00   0.00E+00      0.00  1  1  1   0  0

 CPU time for iterative RMP2-F12                  0.00 sec


 DF-RMP2-F12 doubles corrections:
 - - - - - - - - - - - - - - - - 
  Approx.                             TOTAL           A-B            A-A            B-B    
  RMP2-F12/3C(FIX)                 0.000000000    0.000000000    0.000000000    0.000000000
  RMP2-F12/3*C(FIX)                0.000000000    0.000000000    0.000000000    0.000000000
  RMP2-F12/3*C(DX)                 0.000000000    0.000000000    0.000000000    0.000000000
  RMP2-F12/3*C(FIX,DX)             0.000000000    0.000000000    0.000000000    0.000000000

 DF-RMP2-F12 doubles energies:
 - - - - - - - - - - - - - - -
  Approx.                             TOTAL           A-B            A-A            B-B    
  RMP2                             0.000000000    0.000000000    0.000000000    0.000000000
  RMP2-F12/3C(FIX)                 0.000000000    0.000000000    0.000000000    0.000000000
  RMP2-F12/3*C(FIX)                0.000000000    0.000000000    0.000000000    0.000000000
  RMP2-F12/3*C(DX)                 0.000000000    0.000000000    0.000000000    0.000000000
  RMP2-F12/3*C(FIX,DX)             0.000000000    0.000000000    0.000000000    0.000000000


  Reference energy                     -0.499821176024
  CABS relaxation correction to RHF    -0.000030761822
  New reference energy                 -0.499851937846

  RMP2-F12 singles (MO) energy         -0.000000000000
  RMP2-F12 pair energy                  0.000000000000
  RMP2-F12 correlation energy           0.000000000000

 !RMP2-F12/3C(FIX) energy              -0.499851937846


 **********************************************************************************************************************************
 DATASETS  * FILE   NREC   LENGTH (MB)   RECORD NAMES
              1      18       28.83       500      610      700      900      950      970     1000      129      960     1100   
                                          VAR    BASINP    GEOM    SYMINP    ZMAT    AOBASIS   BASIS     P2S    ABASIS      S 
                                         1400     1410     1200     1210     1080     1600     1650     1700   
                                           T        V       H0       H01     AOSYM     SMH    MOLCAS    OPER   

              2       5        0.53       700     1000      520     2100     7360   
                                         GEOM     BASIS   MCVARS     RHF    F12ABS    

 PROGRAMS   *        TOTAL   MP2-F12   MP2-F12   MP2-F12   MP2-F12   MP2-F12   MP2-F12   MP2-F12   MP2-F12   MP2-F12   MP2-F12
 CPU TIMES  *        11.90      0.10      0.10      0.10      0.10      0.10      0.09      0.09      0.09      0.08      0.08
 REAL TIME  *        14.20 SEC
 DISK USED  *        30.76 MB
 **********************************************************************************************************************************
 E(55)           =    0.0000000D+00  AU                              


   GEM_BETA     E
       0.25   0.0
       0.30   0.0
       0.35   0.0
       0.40   0.0
       0.45   0.0
       0.50   0.0
       0.55   0.0
       0.60   0.0
       0.65   0.0
       0.70   0.0
       0.75   0.0
       0.80   0.0
       0.85   0.0
       0.90   0.0
       0.95   0.0
       1.00   0.0
       1.05   0.0
       1.10   0.0
       1.15   0.0
       1.20   0.0
       1.25   0.0
       1.30   0.0
       1.35   0.0
       1.40   0.0
       1.45   0.0
       1.50   0.0
       1.55   0.0
       1.60   0.0
       1.65   0.0
       1.70   0.0
       1.75   0.0
       1.80   0.0
       1.85   0.0
       1.90   0.0
       1.95   0.0
       2.00   0.0
       2.05   0.0
       2.10   0.0
       2.15   0.0
       2.20   0.0
       2.25   0.0
       2.30   0.0
       2.35   0.0
       2.40   0.0
       2.45   0.0
       2.50   0.0
       2.55   0.0
       2.60   0.0
       2.65   0.0
       2.70   0.0
       2.75   0.0
       2.80   0.0
       2.85   0.0
       2.90   0.0
       2.95   0.0
                                                  

 DF-MP2-F12/AWCVTZ energy=     -0.499851937846

      DF-MP2-F12          DF-MP2           DF-HF
     -0.49985194     -0.49982118     -0.49982118
 **********************************************************************************************************************************
 Molpro calculation terminated
