
 Working directory              : /SCR1/amin/na_cl_xg_1.2_1.4_1.3.152753-20250724/molpro.13EwO8uaHO/
 Global scratch directory       : /SCR1/amin/na_cl_xg_1.2_1.4_1.3.152753-20250724/molpro.13EwO8uaHO/
 Wavefunction directory         : /home/linux3_i1/amin/molpro_calculations/test_molpro_dev/dimers/
 Main file repository           : /SCR1/amin/na_cl_xg_1.2_1.4_1.3.152753-20250724/molpro.13EwO8uaHO/

 id        : kamin

 Nodes     nprocs
 orpheus46    1
 GA implementation: MPI file
 GA implementation (serial work in mppx): MPI file

 Using customized tuning parameters: mindgm=1; mindgv=20; mindgc=4; mindgr=1; noblas=0; minvec=7
 default implementation of scratch files=df  


 Variables initialized (1045), CPU time= 0.00 sec
 memory,2000,m
 gprint,orbitals
 
 geometry={
   angstrom;
   na;
   cl, na, 2.36;
 }
 
 
 basis=cc-pVDZ
 
 {df-hf}
 {df-mp2}
 {df-mp2-f12,cpp_prog='DF-MP2-XG',ANSATZ='/home/linux3_i1/amin/f12xg_inputs/expfile_1.20_1.40_1.30.txt'}
 Commands initialized (836), CPU time= 0.01 sec, 720 directives.
 Default parameters read. Elapsed time= 0.14 sec

 Checking input...
 Passed
1


                                         ***  PROGRAM SYSTEM MOLPRO  ***
                                       Copyright, TTI GmbH Stuttgart, 2015
                                    Version 2024.3 linked Thu Jul 17 16:02:16 2025


 **********************************************************************************************************************************
 LABEL *                                                                                                                                                                 
  64 bit serial version                                                                  DATE: 24-Jul-25          TIME: 15:55:23  
 **********************************************************************************************************************************

 SHA1:             f8efddab7e9fb8d4eb929e30d491a2212e57de49
 **********************************************************************************************************************************

 Memory per process:      2000 MW
 Total memory per node:   2000 MW

 GA preallocation disabled
 GA check disabled

 Variable memory set to 2000.0 MW



 Turning off symmetry in density fitting calculation
 To re-enable, use 'symmetry,auto'

 SETTING BASIS          =    CC-PVDZ


 Recomputing integrals since basis changed


 Using spherical harmonics

 Library entry NA     S cc-pVDZ              selected for orbital group  1
 Library entry NA     P cc-pVDZ              selected for orbital group  1
 Library entry NA     D cc-pVDZ              selected for orbital group  1
 Library entry CL     S cc-pVDZ              selected for orbital group  2
 Library entry CL     P cc-pVDZ              selected for orbital group  2
 Library entry CL     D cc-pVDZ              selected for orbital group  2


 PROGRAM * SEWARD (Integral evaluation for generally contracted gaussian basis sets)     Author: Roland Lindh, 1990

 Geometry written to block  1 of record 700

 Orientation using atomic masses  
 Molecule type: Linear
 Rotational constants:       6.5063157      6.5063157      0.0000000 GHz  (calculated with average atomic masses)

 Point group  C1  



 ATOMIC COORDINATES

 NR  ATOM    CHARGE       X              Y              Z

   1  NA     11.00    0.000000000    0.000000000   -2.705404908
   2  CL     17.00    0.000000000    0.000000000    1.754348746

 Bond lengths in Bohr (Angstrom)

 1-2  4.459753654
     ( 2.360000000)

 NUCLEAR CHARGE:                   28
 NUMBER OF PRIMITIVE AOS:          84
 NUMBER OF SYMMETRY AOS:           82
 NUMBER OF CONTRACTIONS:           36   (   36A   )
 NUMBER OF INNER CORE ORBITALS:     2   (    2A   )
 NUMBER OF OUTER CORE ORBITALS:     8   (    8A   )
 NUMBER OF VALENCE ORBITALS:        8   (    8A   )


 NUCLEAR REPULSION ENERGY   41.93056714

 EXTRA SYMMETRY OF AOS IN SYMMETRY 1:   1 1 1 1 2 3 1 2 3 1   2 3 1 1 4 2 5 3 1 1   1 1 2 3 1 2 3 1 2 3   1 1 4 2 5 3

 Eigenvalues of metric

         1 0.810E-02 0.341E-01 0.462E-01 0.476E-01 0.476E-01 0.108E+00 0.108E+00 0.125E+00


 OPERATOR DM      FOR CENTER  0  COORDINATES:    0.000000    0.000000    0.000000


 **********************************************************************************************************************************
 DATASETS  * FILE   NREC   LENGTH (MB)   RECORD NAMES
              1      18       28.89       500      610      700      900      950      970     1000      129      960     1100   
                                          VAR    BASINP    GEOM    SYMINP    ZMAT    AOBASIS   BASIS     P2S    ABASIS      S 
                                         1400     1410     1200     1210     1080     1600     1650     1700   
                                           T        V       H0       H01     AOSYM     SMH    MOLCAS    OPER   

 PROGRAMS   *        TOTAL       INT
 CPU TIMES  *         0.41      0.30
 REAL TIME  *         1.42 SEC
 DISK USED  *        29.21 MB
 **********************************************************************************************************************************


 Program * Restricted Hartree-Fock


 Generating basis VDZ-JKFIT
  Atom=NA       basis=def2-QZVPP/JKFIT
  Atom=CL       basis=cc-pVDZ/JKFIT
 Number of basis functions:     224

 Coulomb and exchange fitting
 Thresholds for fitting:       THRAO_COUL= 1.0D-15    THRAO_EXCH= 1.0D-13    THRMO= 1.0D-12    THRPROD= 1.0D-12    THRASM= 1.0D-12
                               THR2HLF=    1.0D-12

 Basis set VDZ-JKFIT loaded. Number of basis functions: 224

 Orbital guess generated from atomic densities. Full valence occupancy:   15
 Using density fitting in orbital guess


 Initial occupancy:  14

 NELEC=   28   SYM=1   MS2= 0   THRE=1.0D-08   THRD=3.2D-06   THRG=3.2D-06  HFMA2=F  DIIS_START=2   DIIS_MAX=10   DIIS_INCORE=F

 Level shifts:    0.00 (CLOSED)    0.00 (OPEN)    0.30 (GAP_MIN)

 ITER           ETOT              DE          GRAD        DDIFF     DIIS  NEXP   TIME(IT)  TIME(TOT)  DIAG
   1     -621.40350618    -621.40350618     0.00D+00     0.29D+00     0     0       0.02      0.05    start
   2     -621.43090833      -0.02740215     0.80D-02     0.37D-01     1     0       0.02      0.07    diag
   3     -621.43355011      -0.00264178     0.30D-02     0.91D-02     2     0       0.02      0.09    diag
   4     -621.43362044      -0.00007033     0.27D-03     0.20D-02     3     0       0.02      0.11    diag
   5     -621.43362392      -0.00000349     0.64D-04     0.41D-03     4     0       0.02      0.13    diag
   6     -621.43362404      -0.00000012     0.94D-05     0.67D-04     5     0       0.02      0.15    diag
   7     -621.43362405      -0.00000001     0.24D-05     0.25D-04     6     0       0.02      0.17    diag
   8     -621.43362405      -0.00000000     0.46D-06     0.45D-05     7     0       0.02      0.19    fixocc
   9     -621.43362405      -0.00000000     0.13D-06     0.71D-06     8     0       0.02      0.21    diag
  10     -621.43362405      -0.00000000     0.26D-07     0.11D-06     0     0       0.02      0.23    diag/orth

 Final occupancy:  14

 !RHF STATE 1.1 Energy               -621.433624050264
  RHF One-electron energy            -949.192462556175
  RHF Two-electron energy             285.828271370800
  RHF Kinetic energy                  621.448949090390
  RHF Nuclear energy                   41.930567135111
  RHF Virial quotient                  -0.999975339825

 !RHF STATE 1.1 Dipole moment          -0.00000000    -0.00000000    -3.67216384
 Dipole moment /Debye                  -0.00000000    -0.00000000    -9.33370948

 ELECTRON ORBITALS
 =================

  Orbital  Occupation    Energy    Cen Mu Typ  Coefficients
    1.1     2.00000  -104.69864     2  1  s    1.00002
    2.1     2.00000   -40.50519     1  1  s    1.00000
    3.1     2.00000   -10.42328     2  2  s    1.00274
    4.1     2.00000    -7.88971     2  1  pz   0.99998
    5.1     2.00000    -7.88891     2  1  px   0.95629    2  1  py   0.29230
    6.1     2.00000    -7.88891     2  1  px  -0.29230    2  1  py   0.95629
    7.1     2.00000    -2.82701     1  2  s    0.99985
    8.1     2.00000    -1.54922     1  1  pz   0.99805
    9.1     2.00000    -1.54921     1  1  py   0.99517
   10.1     2.00000    -1.54921     1  1  px   0.99517
   11.1     2.00000    -0.93747     2  3  s    0.92197
   12.1     2.00000    -0.36464     1  3  s   -0.27180    2  2  pz   0.88830
   13.1     2.00000    -0.34829     2  2  px   0.85389    2  2  py   0.29166
   14.1     2.00000    -0.34829     2  2  px  -0.29166    2  2  py   0.85389


 HOMO     14.1    -0.348287 =      -9.4774eV
 LUMO     15.1    -0.016752 =      -0.4559eV
 LUMO-HOMO         0.331535 =       9.0215eV

 Orbitals saved in record  2100.2


 **********************************************************************************************************************************
 DATASETS  * FILE   NREC   LENGTH (MB)   RECORD NAMES
              1      18       28.89       500      610      700      900      950      970     1000      129      960     1100   
                                          VAR    BASINP    GEOM    SYMINP    ZMAT    AOBASIS   BASIS     P2S    ABASIS      S 
                                         1400     1410     1200     1210     1080     1600     1650     1700   
                                           T        V       H0       H01     AOSYM     SMH    MOLCAS    OPER   

              2       4        0.54       700     1000      520     2100   
                                         GEOM     BASIS   MCVARS     RHF  

 PROGRAMS   *        TOTAL     DF-HF       INT
 CPU TIMES  *         0.65      0.24      0.30
 REAL TIME  *         1.75 SEC
 DISK USED  *        30.52 MB
 **********************************************************************************************************************************


 PROGRAM * MP2 (Closed-shell)     Authors: C. Hampel, H.-J. Werner, 1991, M. Deegan, P.J. Knowles, 1992



 Generating basis CC-PVDZ-MP2FIT
  Atom=NA       basis=cc-pVDZ/MP2FIT
  Atom=CL       basis=cc-pVDZ/MP2FIT
 Number of basis functions:     152


 Convergence thresholds:  THRVAR = 1.00D-08  THRDEN = 1.00D-06

 Number of core orbitals:          10 (  10 )
 Number of closed-shell orbitals:   4 (   4 )
 Number of external orbitals:      22 (  22 )

 Molecular orbitals read from record     2100.2  Type=RHF/CANONICAL  


 Entering DF-MP2

 Thresholds:    THRAO= 0.100D-13    THRMO= 0.100D-13    THROV= 0.100D-13    THRPROD= 0.100D-13

 Fitting basis: CC-PVDZ-MP2FIT
 Number of fitting functions:              152

 Minimum memory with paging:              0.75 MW
 Minimum memory for incore algorithm:     0.77 MW
 Memory for 3-index integrals:            0.00 MW

 Disk space for H1-integrals:             0.17 MB (   1 records)

 SCS-MP2 correlation energy:           -0.135878052936   (PS=  1.200000  PT=  0.333333)
 SCS-MP2 total energy:               -621.569502103200

 Norm of first-order wave function:     0.038762292434
 Coefficient of reference function:     0.981164693236

  Reference energy                   -621.433624050264
  MP2 singlet pair energy              -0.083430958880
  MP2 triplet pair energy              -0.057472878663
  MP2 correlation energy               -0.140903837543

 !MP2 total energy                   -621.574527887808


 **********************************************************************************************************************************
 DATASETS  * FILE   NREC   LENGTH (MB)   RECORD NAMES
              1      18       28.89       500      610      700      900      950      970     1000      129      960     1100   
                                          VAR    BASINP    GEOM    SYMINP    ZMAT    AOBASIS   BASIS     P2S    ABASIS      S 
                                         1400     1410     1200     1210     1080     1600     1650     1700   
                                           T        V       H0       H01     AOSYM     SMH    MOLCAS    OPER   

              2       4        0.54       700     1000      520     2100   
                                         GEOM     BASIS   MCVARS     RHF  

 PROGRAMS   *        TOTAL    DF-MP2     DF-HF       INT
 CPU TIMES  *         0.70      0.05      0.24      0.30
 REAL TIME  *         1.85 SEC
 DISK USED  *        30.52 MB
 **********************************************************************************************************************************


 PROGRAM * MP2 (Closed-shell)     Authors: C. Hampel, H.-J. Werner, 1991, M. Deegan, P.J. Knowles, 1992

                                   MP2-F12 implementation by H.-J. Werner, 2007

                   Density fitting integral evaluation by F.R. Manby, 2003,2007, G. Knizia, 2010



 Generating basis VDZ-JKFIT

 Generating basis VDZ-JKFIT

 Generating basis CC-PVDZ-MP2FIT

 Convergence thresholds:  THRVAR = 1.00D-08  THRDEN = 1.00D-06

 Number of core orbitals:          10 (  10 )
 Number of closed-shell orbitals:   4 (   4 )
 Number of external orbitals:      22 (  22 )

 Molecular orbitals read from record     2100.2  Type=RHF/CANONICAL  
 Ansatz: F12//HOME/LINUX3_I1/AMIN/F12XG_INPUTS/EXPFILE_1.20_1.40_1.30.TXT
 Using F12XG exponents file
 ContextName: df_mp2-f12-xg

 AlgoFileName: DfMp2-f12-xg.itfca

 Algorithm: DfMp2-f12-xg.itfca

 ==== Running InitGeminal()
 EXPFILE: /home/linux3_i1/amin/f12xg_inputs/expfile_1.20_1.40_1.30.txt
 nGem 6
 key = nCo
 1 nCo 1
 key = Exp
 arr[0] = 0.25634
 arr[1] = 1.01398
 arr[2] = 3.4494
 arr[3] = 11.3613
 arr[4] = 42.567
 arr[5] = 235.638
 1 Exp 0.25634,1.01398,3.4494,11.36128,42.56704,235.63792
 key = Coe
 arr[0] = 0.23874
 arr[1] = 0.30393
 arr[2] = 0.19417
 arr[3] = 0.11944
 arr[4] = 0.07465
 arr[5] = 0.04642
 1 Coe 0.23874,0.30393,0.19417,0.11944,0.07465,0.04642
 key = nCo
 2 nCo 1
 key = Exp
 arr[0] = 0.32335
 arr[1] = 1.2209
 arr[2] = 4.06503
 arr[3] = 13.2865
 arr[4] = 49.6523
 arr[5] = 274.65
 2 Exp 0.32335,1.2209,4.06503,13.28654,49.65231,274.64957
 key = Coe
 arr[0] = 0.21345
 arr[1] = 0.30057
 arr[2] = 0.20316
 arr[3] = 0.12774
 arr[4] = 0.08045
 arr[5] = 0.05014
 2 Coe 0.21345,0.30057,0.20316,0.12774,0.08045,0.05014
 key = nCo
 3 nCo 1
 key = Exp
 arr[0] = 0.28911
 arr[1] = 1.11593
 arr[2] = 3.75397
 arr[3] = 12.3155
 arr[4] = 46.0811
 arr[5] = 254.99
 3 Exp 0.28911,1.11593,3.75397,12.31549,46.08106,254.99017
 key = Coe
 arr[0] = 0.2254
 arr[1] = 0.30241
 arr[2] = 0.1989
 arr[3] = 0.12373
 arr[4] = 0.07763
 arr[5] = 0.04833
 3 Coe 0.2254,0.30241,0.1989,0.12373,0.07763,0.04833
 Finished with READING EXPFILE
 Printing m_GemExp_F12_1
 1 0.25634 0.23874
 1 1.01398 0.30393
 1 3.4494 0.19417
 1 11.3613 0.11944
 1 42.567 0.07465
 1 235.638 0.04642
 Setting F12 squares
 Setting F12 cross terms
 ==== Running InitSpecialBasisSets()
 Importing basis set 'ORBITAL'.
 Imported basis set 'ORBITAL'.
 Blocks:
     18 18
 Shells:
    [4: s on 0][9: p on 0][5: d on 0][4: s on 1][9: p on 1][5: d on 1]
 Load DF basis CC-PVDZ-MP2FIT

 Importing basis set 'CC-PVDZ-MP2FIT'.
 Imported basis set 'CC-PVDZ-MP2FIT'.
 Blocks:
     30 25 21 30 25 21
 Shells:
    [9: s on 0][21: p on 0][25: d on 0][21: f on 0][9: s on 1][21: p on 1][25: d on 1][21: f on 1]
 Load DF basis VDZ-JKFIT

 Importing basis set 'VDZ-JKFIT'.
 Imported basis set 'VDZ-JKFIT'.
 Blocks:
     16 24 5 30 28 22 33 45 21
 Shells:
    [1: s on 0][12: s on 0][3: p on 0][24: p on 0][5: d on 0][30: d on 0][28: f on 0][9: g on 0][13: s on 1][33: p on 1][45: d on 1][21: f on 1]
 Load DF basis VDZ-JKFIT

 Importing basis set 'VDZ-JKFIT'.
 Imported basis set 'VDZ-JKFIT'.
 Blocks:
     16 24 5 30 28 22 33 45 21
 Shells:
    [1: s on 0][12: s on 0][3: p on 0][24: p on 0][5: d on 0][30: d on 0][28: f on 0][9: g on 0][13: s on 1][33: p on 1][45: d on 1][21: f on 1]
 ==== Running InitBaseIntegralKernels()
 ==== Running InitIntegralKernels()
 ==== Running SetGeminalAssignment()
 ==== Running ListGeminalAssignment()
 1  atom index: 0  l = 0  nFunc: 4  nPrim: 12
    GammaGroups:   1 1 1 1
 2  atom index: 0  l = 1  nFunc: 9  nPrim: 24
    GammaGroups:   1 1 1 1 1 1 1 1 1
 3  atom index: 0  l = 2  nFunc: 5  nPrim: 5
    GammaGroups:   1 1 1 1 1
 4  atom index: 1  l = 0  nFunc: 4  nPrim: 12
    GammaGroups:   2 2 2 2
 5  atom index: 1  l = 1  nFunc: 9  nPrim: 24
    GammaGroups:   2 2 2 2 2 2 2 2 2
 6  atom index: 1  l = 2  nFunc: 5  nPrim: 5
    GammaGroups:   2 2 2 2 2
 Importing Molpro integrals.
  reserve for tensor : f:ee                             file = 6 rec = 6000 ofs = 0 len = 3904
  reserve for tensor : f:ec                             file = 6 rec = 6000 ofs = 3904 len = 704
  reserve for tensor : f:ea                             file = 6 rec = 6000 ofs = 4608 len = 0
  reserve for tensor : f:cc                             file = 6 rec = 6000 ofs = 4608 len = 128
  reserve for tensor : f:ca                             file = 6 rec = 6000 ofs = 4736 len = 0
  reserve for tensor : f:aa                             file = 6 rec = 6000 ofs = 4736 len = 0
  reserve for tensor : f:CC                             file = 6 rec = 6000 ofs = 4736 len = 448
  reserve for tensor : f:cC                             file = 6 rec = 6000 ofs = 5184 len = 320
  reserve for tensor : f:eC                             file = 6 rec = 6000 ofs = 5504 len = 1792
 FDiskTensor: store f:ee range [0,1)x[0,1)  (nSeq = 1)
    FDiskTensor: store       0 (sz 3872)
 FDiskTensor: store f:ec range [0,1)x[0,4)  (nSeq = 1)
    FDiskTensor: store       0 (sz 704)
 FDiskTensor: store f:ea range [0,1)x[0,0)  (nSeq = 0)
 FDiskTensor: store f:cc range [0,4)x[0,4)  (nSeq = 1)
    FDiskTensor: store       0 (sz 80)
 FDiskTensor: store f:ca range [0,4)x[0,0)  (nSeq = 0)
 FDiskTensor: store f:aa range [0,0)x[0,0)  (nSeq = 0)
 FDiskTensor: store f:CC range [0,10)x[0,10)  (nSeq = 1)
    FDiskTensor: store       0 (sz 440)
 FDiskTensor: store f:cC range [0,4)x[0,10)  (nSeq = 1)
    FDiskTensor: store       0 (sz 320)
 FDiskTensor: store f:eC range [0,1)x[0,10)  (nSeq = 1)
    FDiskTensor: store       0 (sz 1760)
  reserve for tensor : g:ee                             file = 6 rec = 6000 ofs = 7296 len = 3904
  reserve for tensor : g:ec                             file = 6 rec = 6000 ofs = 11200 len = 704
  reserve for tensor : g:ea                             file = 6 rec = 6000 ofs = 11904 len = 0
  reserve for tensor : g:cc                             file = 6 rec = 6000 ofs = 11904 len = 128
  reserve for tensor : g:ca                             file = 6 rec = 6000 ofs = 12032 len = 0
  reserve for tensor : g:aa                             file = 6 rec = 6000 ofs = 12032 len = 0
 FDiskTensor: store g:ee range [0,1)x[0,1)  (nSeq = 1)
    FDiskTensor: store       0 (sz 3872)
 FDiskTensor: store g:ec range [0,1)x[0,4)  (nSeq = 1)
    FDiskTensor: store       0 (sz 704)
 FDiskTensor: store g:ea range [0,1)x[0,0)  (nSeq = 0)
 FDiskTensor: store g:cc range [0,4)x[0,4)  (nSeq = 1)
    FDiskTensor: store       0 (sz 80)
 FDiskTensor: store g:ca range [0,4)x[0,0)  (nSeq = 0)
 FDiskTensor: store g:aa range [0,0)x[0,0)  (nSeq = 0)
  reserve for tensor : h:ee                             file = 6 rec = 6000 ofs = 12032 len = 3904
  reserve for tensor : h:ec                             file = 6 rec = 6000 ofs = 15936 len = 704
  reserve for tensor : h:ea                             file = 6 rec = 6000 ofs = 16640 len = 0
  reserve for tensor : h:cc                             file = 6 rec = 6000 ofs = 16640 len = 128
  reserve for tensor : h:ca                             file = 6 rec = 6000 ofs = 16768 len = 0
  reserve for tensor : h:aa                             file = 6 rec = 6000 ofs = 16768 len = 0
  reserve for tensor : h:CC                             file = 6 rec = 6000 ofs = 16768 len = 448
 FDiskTensor: store h:ee range [0,1)x[0,1)  (nSeq = 1)
    FDiskTensor: store       0 (sz 3872)
 FDiskTensor: store h:ec range [0,1)x[0,4)  (nSeq = 1)
    FDiskTensor: store       0 (sz 704)
 FDiskTensor: store h:ea range [0,1)x[0,0)  (nSeq = 0)
 FDiskTensor: store h:cc range [0,4)x[0,4)  (nSeq = 1)
    FDiskTensor: store       0 (sz 80)
 FDiskTensor: store h:ca range [0,4)x[0,0)  (nSeq = 0)
 FDiskTensor: store h:aa range [0,0)x[0,0)  (nSeq = 0)
 FDiskTensor: store h:CC range [0,10)x[0,10)  (nSeq = 1)
    FDiskTensor: store       0 (sz 440)
  reserve for tensor : Orb:Ac                           file = 6 rec = 6000 ofs = 17216 len = 1152
 FDiskTensor: store Orb:Ac range [0,2)x[0,4)  (nSeq = 1)
    FDiskTensor: store       0 (sz 1152)
  reserve for tensor : Orb:Ae                           file = 6 rec = 6000 ofs = 18368 len = 6336
 FDiskTensor: store Orb:Ae range [0,2)x[0,1)  (nSeq = 1)
    FDiskTensor: store       0 (sz 6336)
  reserve for tensor : Orb:Ar                           file = 6 rec = 6000 ofs = 24704 len = 10368
 FDiskTensor: store Orb:Ar range [0,2)x[0,1)  (nSeq = 1)
    FDiskTensor: store       0 (sz 10368)
  reserve for tensor : Orb:AI                           file = 6 rec = 6000 ofs = 35072 len = 4032
 FDiskTensor: store Orb:AI range [0,2)x[0,1)  (nSeq = 1)
    FDiskTensor: store       0 (sz 4032)
 ABS:                           EwMin = 1.412e-05  EwMax = 6.601e+00  Ratio = 2.139e-06
 CABS:                          EwMin = 5.845e-08  EwMax = 1.000e+00  Ratio = 5.845e-08
  reserve for tensor : Cabs:Rx                          file = 6 rec = 6000 ofs = 39104 len = 401408
 FDiskTensor: store Cabs:Rx range [0,9)x[0,1)  (nSeq = 1)
    FDiskTensor: store       0 (sz 401408)
  reserve for tensor : Cabs:Ax                          file = 6 rec = 6000 ofs = 440512 len = 64512
 FDiskTensor: store Cabs:Ax range [0,2)x[0,1)  (nSeq = 1)
    FDiskTensor: store       0 (sz 64512)
  reserve for tensor : CoreH:AA                         file = 6 rec = 6000 ofs = 505024 len = 10368
 FDiskTensor: store CoreH:AA range [0,2)x[0,2)  (nSeq = 1)
    FDiskTensor: store       0 (sz 10368)
  reserve for tensor : CoreH:RA                         file = 6 rec = 6000 ofs = 515392 len = 64512
 FDiskTensor: store CoreH:RA range [0,9)x[0,2)  (nSeq = 1)
    FDiskTensor: store       0 (sz 64512)
  reserve for tensor : CoreH:RR                         file = 6 rec = 6000 ofs = 579904 len = 401408
 FDiskTensor: store CoreH:RR range [0,9)x[0,9)  (nSeq = 1)
    FDiskTensor: store       0 (sz 401408)
 ==== Running AlgoSet.LoadAlgoFile()
 AlgoFile SearchPath[0] = /home/linux3_i1/amin/molpro_ak-ustutt/Molpro_clean/build_cmake/bin/
 AlgoFile SearchPath[1] = /home/linux3_i1/amin/molpro_ak-ustutt/Molpro_clean/build_cmake/bin/../lib/algo/
 Loading itfca: df_mp2-f12-xg [/home/linux3_i1/amin/molpro_ak-ustutt/Molpro_clean/src/algo/DfMp2-f12-xg.itfaa, ]
  reserve for tensor : df_mp2-f12-xg::BF[mnij]          file = 6 rec = 6000 ofs = 981312 len = 2048
  reserve for tensor : df_mp2-f12-xg::CF[abij]          file = 6 rec = 6000 ofs = 983360 len = 61952
  reserve for tensor : df_mp2-f12-xg::CJ[MNF]           file = 6 rec = 6000 ofs = 1045312 len = 1575936
  reserve for tensor : df_mp2-f12-xg::CJ[RNF]           file = 6 rec = 6000 ofs = 2621248 len = 9805824
  reserve for tensor : df_mp2-f12-xg::DF:Fec            file = 6 rec = 6000 ofs = 12427072 len = 107008
  reserve for tensor : df_mp2-f12-xg::DF[FIi]           file = 6 rec = 6000 ofs = 12534080 len = 68096
  reserve for tensor : df_mp2-f12-xg::DF[FNi]           file = 6 rec = 6000 ofs = 12602176 len = 175104
  reserve for tensor : df_mp2-f12-xg::DF[FSi]           file = 6 rec = 6000 ofs = 12777280 len = 1089536
  reserve for tensor : df_mp2-f12-xg::DF[Fmi]           file = 6 rec = 6000 ofs = 13866816 len = 19456
  reserve for tensor : df_mp2-f12-xg::DF[Fri]           file = 6 rec = 6000 ofs = 13886272 len = 175104
  reserve for tensor : df_mp2-f12-xg::DF[Fxi]           file = 6 rec = 6000 ofs = 14061376 len = 1089536
  reserve for tensor : df_mp2-f12-xg::DFbar[FJi]        file = 6 rec = 6000 ofs = 15150912 len = 68096
  reserve for tensor : df_mp2-f12-xg::DFbar[Fmi]        file = 6 rec = 6000 ofs = 15219008 len = 19456
  reserve for tensor : df_mp2-f12-xg::DFbar[Fri]        file = 6 rec = 6000 ofs = 15238464 len = 175104
  reserve for tensor : df_mp2-f12-xg::DFbar[Fxi]        file = 6 rec = 6000 ofs = 15413568 len = 1089536
  reserve for tensor : df_mp2-f12-xg::DFtil[Fai]        file = 6 rec = 6000 ofs = 16503104 len = 107008
  reserve for tensor : df_mp2-f12-xg::DFtil[Fxi]        file = 6 rec = 6000 ofs = 16610112 len = 1089536
  reserve for tensor : df_mp2-f12-xg::Dc2F1F1[FF]       file = 6 rec = 6000 ofs = 17699648 len = 184832
  reserve for tensor : df_mp2-f12-xg::Dc2F1F2[FF]       file = 6 rec = 6000 ofs = 17884480 len = 184832
  reserve for tensor : df_mp2-f12-xg::Dc2F1F3[FF]       file = 6 rec = 6000 ofs = 18069312 len = 184832
  reserve for tensor : df_mp2-f12-xg::Dc2F1[FF]         file = 6 rec = 6000 ofs = 18254144 len = 184832
  reserve for tensor : df_mp2-f12-xg::Dc2F2F2[FF]       file = 6 rec = 6000 ofs = 18438976 len = 184832
  reserve for tensor : df_mp2-f12-xg::Dc2F2F3[FF]       file = 6 rec = 6000 ofs = 18623808 len = 184832
  reserve for tensor : df_mp2-f12-xg::Dc2F3F3[FF]       file = 6 rec = 6000 ofs = 18808640 len = 184832
  reserve for tensor : df_mp2-f12-xg::Dc2FF[FF]         file = 6 rec = 6000 ofs = 18993472 len = 184832
  reserve for tensor : df_mp2-f12-xg::Dc2FT[FF]         file = 6 rec = 6000 ofs = 19178304 len = 184832
  reserve for tensor : df_mp2-f12-xg::Dc2K1[FF]         file = 6 rec = 6000 ofs = 19363136 len = 184832
  reserve for tensor : df_mp2-f12-xg::Dc2KF[FF]         file = 6 rec = 6000 ofs = 19547968 len = 184832
  reserve for tensor : df_mp2-f12-xg::Dl3F1[FIi]        file = 6 rec = 6000 ofs = 19732800 len = 68096
  reserve for tensor : df_mp2-f12-xg::Dl3F1[FNi]        file = 6 rec = 6000 ofs = 19800896 len = 175104
  reserve for tensor : df_mp2-f12-xg::Dl3F1[FSi]        file = 6 rec = 6000 ofs = 19976000 len = 1089536
  reserve for tensor : df_mp2-f12-xg::Dl3F1[Fai]        file = 6 rec = 6000 ofs = 21065536 len = 107008
  reserve for tensor : df_mp2-f12-xg::Dl3F1[Fri]        file = 6 rec = 6000 ofs = 21172544 len = 175104
  reserve for tensor : df_mp2-f12-xg::Dl3F1[Fxi]        file = 6 rec = 6000 ofs = 21347648 len = 1089536
  reserve for tensor : df_mp2-f12-xg::Dl3F1bar[FJi]     file = 6 rec = 6000 ofs = 22437184 len = 68096
  reserve for tensor : df_mp2-f12-xg::Dl3F1bar[Fri]     file = 6 rec = 6000 ofs = 22505280 len = 175104
  reserve for tensor : df_mp2-f12-xg::Dl3F1bar[Fxi]     file = 6 rec = 6000 ofs = 22680384 len = 1089536
  reserve for tensor : df_mp2-f12-xg::Dl3F1til[Fai]     file = 6 rec = 6000 ofs = 23769920 len = 107008
  reserve for tensor : df_mp2-f12-xg::Dl3F1til[Fxi]     file = 6 rec = 6000 ofs = 23876928 len = 1089536
  reserve for tensor : df_mp2-f12-xg::Dl3FF[FNi]        file = 6 rec = 6000 ofs = 24966464 len = 175104
  reserve for tensor : df_mp2-f12-xg::Dl3FF[FSi]        file = 6 rec = 6000 ofs = 25141568 len = 1089536
  reserve for tensor : df_mp2-f12-xg::Dl3FF[Fmi]        file = 6 rec = 6000 ofs = 26231104 len = 19456
  reserve for tensor : df_mp2-f12-xg::Dl3FFbar[Fmi]     file = 6 rec = 6000 ofs = 26250560 len = 19456
  reserve for tensor : df_mp2-f12-xg::Dl3FT[Fmi]        file = 6 rec = 6000 ofs = 26270016 len = 19456
  reserve for tensor : df_mp2-f12-xg::Dl3KF[Fmi]        file = 6 rec = 6000 ofs = 26289472 len = 19456
  reserve for tensor : df_mp2-f12-xg::Dr3F1[FIi]        file = 6 rec = 6000 ofs = 26308928 len = 68096
  reserve for tensor : df_mp2-f12-xg::Dr3F1[FNi]        file = 6 rec = 6000 ofs = 26377024 len = 175104
  reserve for tensor : df_mp2-f12-xg::Dr3F1[FSi]        file = 6 rec = 6000 ofs = 26552128 len = 1089536
  reserve for tensor : df_mp2-f12-xg::Dr3F1[Fai]        file = 6 rec = 6000 ofs = 27641664 len = 107008
  reserve for tensor : df_mp2-f12-xg::Dr3F1[Fri]        file = 6 rec = 6000 ofs = 27748672 len = 175104
  reserve for tensor : df_mp2-f12-xg::Dr3F1[Fxi]        file = 6 rec = 6000 ofs = 27923776 len = 1089536
  reserve for tensor : df_mp2-f12-xg::Dr3F1bar[FJi]     file = 6 rec = 6000 ofs = 29013312 len = 68096
  reserve for tensor : df_mp2-f12-xg::Dr3F1bar[Fri]     file = 6 rec = 6000 ofs = 29081408 len = 175104
  reserve for tensor : df_mp2-f12-xg::Dr3F1bar[Fxi]     file = 6 rec = 6000 ofs = 29256512 len = 1089536
  reserve for tensor : df_mp2-f12-xg::Dr3F1til[Fai]     file = 6 rec = 6000 ofs = 30346048 len = 107008
  reserve for tensor : df_mp2-f12-xg::Dr3F1til[Fxi]     file = 6 rec = 6000 ofs = 30453056 len = 1089536
  reserve for tensor : df_mp2-f12-xg::Dr3FF[FNi]        file = 6 rec = 6000 ofs = 31542592 len = 175104
  reserve for tensor : df_mp2-f12-xg::Dr3FF[FSi]        file = 6 rec = 6000 ofs = 31717696 len = 1089536
  reserve for tensor : df_mp2-f12-xg::Dr3FF[Fmi]        file = 6 rec = 6000 ofs = 32807232 len = 19456
  reserve for tensor : df_mp2-f12-xg::Dr3FFbar[Fmi]     file = 6 rec = 6000 ofs = 32826688 len = 19456
  reserve for tensor : df_mp2-f12-xg::Dr3FT[Fmi]        file = 6 rec = 6000 ofs = 32846144 len = 19456
  reserve for tensor : df_mp2-f12-xg::Dr3KF[Fmi]        file = 6 rec = 6000 ofs = 32865600 len = 19456
  reserve for tensor : df_mp2-f12-xg::F1C[MJij]         file = 6 rec = 6000 ofs = 32885056 len = 64512
  reserve for tensor : df_mp2-f12-xg::F1C[MNPQ]         file = 6 rec = 6000 ofs = 32949568 len = 13436928
  reserve for tensor : df_mp2-f12-xg::F1C[MNPb]         file = 6 rec = 6000 ofs = 46386496 len = 8211456
  reserve for tensor : df_mp2-f12-xg::F1C[MNPj]         file = 6 rec = 6000 ofs = 54597952 len = 1492992
  reserve for tensor : df_mp2-f12-xg::F1C[MNab]         file = 6 rec = 6000 ofs = 56090944 len = 5018112
  reserve for tensor : df_mp2-f12-xg::F1C[MNij]         file = 6 rec = 6000 ofs = 61109056 len = 165888
  reserve for tensor : df_mp2-f12-xg::F1C[Mbij]         file = 6 rec = 6000 ofs = 61274944 len = 101376
  reserve for tensor : df_mp2-f12-xg::F1C[Mjab]         file = 6 rec = 6000 ofs = 61376320 len = 557568
  reserve for tensor : df_mp2-f12-xg::F1C[Msij]         file = 6 rec = 6000 ofs = 61933888 len = 165888
  reserve for tensor : df_mp2-f12-xg::F1C[Myij]         file = 6 rec = 6000 ofs = 62099776 len = 1032192
  reserve for tensor : df_mp2-f12-xg::F1C[RJij]         file = 6 rec = 6000 ofs = 63131968 len = 401408
  reserve for tensor : df_mp2-f12-xg::F1C[RNPQ]         file = 6 rec = 6000 ofs = 63533376 len = 83607552
  reserve for tensor : df_mp2-f12-xg::F1C[RNPj]         file = 6 rec = 6000 ofs = 147140928 len = 9289728
  reserve for tensor : df_mp2-f12-xg::F1C[RNij]         file = 6 rec = 6000 ofs = 156430656 len = 1032192
  reserve for tensor : df_mp2-f12-xg::F1C[RSPQ]         file = 6 rec = 6000 ofs = 157462848 len = 520224768
  reserve for tensor : df_mp2-f12-xg::F1C[RSPj]         file = 6 rec = 6000 ofs = 677687616 len = 57802752
  reserve for tensor : df_mp2-f12-xg::F1C[RSij]         file = 6 rec = 6000 ofs = 735490368 len = 6422528
  reserve for tensor : df_mp2-f12-xg::F1C[Rbij]         file = 6 rec = 6000 ofs = 741912896 len = 630784
  reserve for tensor : df_mp2-f12-xg::F1C[Rrij]         file = 6 rec = 6000 ofs = 742543680 len = 1032192
  reserve for tensor : df_mp2-f12-xg::F1C[Ryij]         file = 6 rec = 6000 ofs = 743575872 len = 6422528
  reserve for tensor : df_mp2-f12-xg::F1C[abij]         file = 6 rec = 6000 ofs = 749998400 len = 61952
  reserve for tensor : df_mp2-f12-xg::F1C[ijab]         file = 6 rec = 6000 ofs = 750060352 len = 61952
  reserve for tensor : df_mp2-f12-xg::F1C[rJij]         file = 6 rec = 6000 ofs = 750122304 len = 64512
  reserve for tensor : df_mp2-f12-xg::F1C[rsij]         file = 6 rec = 6000 ofs = 750186816 len = 165888
  reserve for tensor : df_mp2-f12-xg::F1C[xJij]         file = 6 rec = 6000 ofs = 750352704 len = 401408
  reserve for tensor : df_mp2-f12-xg::F1C[xbij]         file = 6 rec = 6000 ofs = 750754112 len = 630784
  reserve for tensor : df_mp2-f12-xg::F1C[xrij]         file = 6 rec = 6000 ofs = 751384896 len = 1032192
  reserve for tensor : df_mp2-f12-xg::F1C[xyij]         file = 6 rec = 6000 ofs = 752417088 len = 6422528
  reserve for tensor : df_mp2-f12-xg::F1F1[MNPQ]        file = 6 rec = 6000 ofs = 758839616 len = 13436928
  reserve for tensor : df_mp2-f12-xg::F1F1[RNPQ]        file = 6 rec = 6000 ofs = 772276544 len = 83607552
  reserve for tensor : df_mp2-f12-xg::F1F1[rNPQ]        file = 6 rec = 6000 ofs = 855884096 len = 13436928
  reserve for tensor : df_mp2-f12-xg::F1F1[xNPQ]        file = 6 rec = 6000 ofs = 869321024 len = 83607552
  reserve for tensor : df_mp2-f12-xg::F1F1bar[MNPQ]     file = 6 rec = 6000 ofs = 952928576 len = 13436928
  reserve for tensor : df_mp2-f12-xg::F1F1barint[MNPQ]  file = 6 rec = 6000 ofs = 966365504 len = 13436928
  reserve for tensor : df_mp2-f12-xg::F1F2[MNPQ]        file = 6 rec = 6000 ofs = 979802432 len = 13436928
  reserve for tensor : df_mp2-f12-xg::F1F2[RNPQ]        file = 6 rec = 6000 ofs = 993239360 len = 83607552
  reserve for tensor : df_mp2-f12-xg::F1F2[rNPQ]        file = 6 rec = 6000 ofs = 1076846912 len = 13436928
  reserve for tensor : df_mp2-f12-xg::F1F2[xNPQ]        file = 6 rec = 6000 ofs = 1090283840 len = 83607552
  reserve for tensor : df_mp2-f12-xg::F1F2bar[MNPQ]     file = 6 rec = 6000 ofs = 1173891392 len = 13436928
  reserve for tensor : df_mp2-f12-xg::F1F2barint[MNPQ]  file = 6 rec = 6000 ofs = 1187328320 len = 13436928
  reserve for tensor : df_mp2-f12-xg::F1F3[MNPQ]        file = 6 rec = 6000 ofs = 1200765248 len = 13436928
  reserve for tensor : df_mp2-f12-xg::F1F3[RNPQ]        file = 6 rec = 6000 ofs = 1214202176 len = 83607552
  reserve for tensor : df_mp2-f12-xg::F1F3[rNPQ]        file = 6 rec = 6000 ofs = 1297809728 len = 13436928
  reserve for tensor : df_mp2-f12-xg::F1F3[xNPQ]        file = 6 rec = 6000 ofs = 1311246656 len = 83607552
  reserve for tensor : df_mp2-f12-xg::F1F3bar[MNPQ]     file = 6 rec = 6000 ofs = 1394854208 len = 13436928
  reserve for tensor : df_mp2-f12-xg::F1F3barint[MNPQ]  file = 6 rec = 6000 ofs = 1408291136 len = 13436928
  reserve for tensor : df_mp2-f12-xg::F1T1[MNPQ]        file = 6 rec = 6000 ofs = 1421728064 len = 13436928
  reserve for tensor : df_mp2-f12-xg::F1T2[MNPQ]        file = 6 rec = 6000 ofs = 1435164992 len = 13436928
  reserve for tensor : df_mp2-f12-xg::F1T3[MNPQ]        file = 6 rec = 6000 ofs = 1448601920 len = 13436928
  reserve for tensor : df_mp2-f12-xg::F1[abij]          file = 6 rec = 6000 ofs = 1462038848 len = 61952
  reserve for tensor : df_mp2-f12-xg::F1[rsij]          file = 6 rec = 6000 ofs = 1462100800 len = 165888
  reserve for tensor : df_mp2-f12-xg::F1[xJij]          file = 6 rec = 6000 ofs = 1462266688 len = 401408
  reserve for tensor : df_mp2-f12-xg::F1[xbij]          file = 6 rec = 6000 ofs = 1462668096 len = 630784
  reserve for tensor : df_mp2-f12-xg::F1[xyij]          file = 6 rec = 6000 ofs = 1463298880 len = 6422528
  reserve for tensor : df_mp2-f12-xg::F1bar[rsij]       file = 6 rec = 6000 ofs = 1469721408 len = 165888
  reserve for tensor : df_mp2-f12-xg::F1bar[xJij]       file = 6 rec = 6000 ofs = 1469887296 len = 401408
  reserve for tensor : df_mp2-f12-xg::F1til[xbij]       file = 6 rec = 6000 ofs = 1470288704 len = 630784
  reserve for tensor : df_mp2-f12-xg::F1til[xyij]       file = 6 rec = 6000 ofs = 1470919488 len = 6422528
  reserve for tensor : df_mp2-f12-xg::F2F2[MNPQ]        file = 6 rec = 6000 ofs = 1477342016 len = 13436928
  reserve for tensor : df_mp2-f12-xg::F2F2[RNPQ]        file = 6 rec = 6000 ofs = 1490778944 len = 83607552
  reserve for tensor : df_mp2-f12-xg::F2F2[rNPQ]        file = 6 rec = 6000 ofs = 1574386496 len = 13436928
  reserve for tensor : df_mp2-f12-xg::F2F2[xNPQ]        file = 6 rec = 6000 ofs = 1587823424 len = 83607552
  reserve for tensor : df_mp2-f12-xg::F2F2bar[MNPQ]     file = 6 rec = 6000 ofs = 1671430976 len = 13436928
  reserve for tensor : df_mp2-f12-xg::F2F2barint[MNPQ]  file = 6 rec = 6000 ofs = 1684867904 len = 13436928
  reserve for tensor : df_mp2-f12-xg::F2F3[MNPQ]        file = 6 rec = 6000 ofs = 1698304832 len = 13436928
  reserve for tensor : df_mp2-f12-xg::F2F3[RNPQ]        file = 6 rec = 6000 ofs = 1711741760 len = 83607552
  reserve for tensor : df_mp2-f12-xg::F2F3[rNPQ]        file = 6 rec = 6000 ofs = 1795349312 len = 13436928
  reserve for tensor : df_mp2-f12-xg::F2F3[xNPQ]        file = 6 rec = 6000 ofs = 1808786240 len = 83607552
  reserve for tensor : df_mp2-f12-xg::F2F3bar[MNPQ]     file = 6 rec = 6000 ofs = 1892393792 len = 13436928
  reserve for tensor : df_mp2-f12-xg::F2F3barint[MNPQ]  file = 6 rec = 6000 ofs = 1905830720 len = 13436928
  reserve for tensor : df_mp2-f12-xg::F2T2[MNPQ]        file = 6 rec = 6000 ofs = 1919267648 len = 13436928
  reserve for tensor : df_mp2-f12-xg::F2T3[MNPQ]        file = 6 rec = 6000 ofs = 1932704576 len = 13436928
  reserve for tensor : df_mp2-f12-xg::F3F3[MNPQ]        file = 6 rec = 6000 ofs = 1946141504 len = 13436928
  reserve for tensor : df_mp2-f12-xg::F3F3[RNPQ]        file = 6 rec = 6000 ofs = 1959578432 len = 83607552
  reserve for tensor : df_mp2-f12-xg::F3F3[rNPQ]        file = 6 rec = 6000 ofs = 2043185984 len = 13436928
  reserve for tensor : df_mp2-f12-xg::F3F3[xNPQ]        file = 6 rec = 6000 ofs = 2056622912 len = 83607552
  reserve for tensor : df_mp2-f12-xg::F3F3bar[MNPQ]     file = 6 rec = 6000 ofs = 2140230464 len = 13436928
  reserve for tensor : df_mp2-f12-xg::F3F3barint[MNPQ]  file = 6 rec = 6000 ofs = 2153667392 len = 13436928
  reserve for tensor : df_mp2-f12-xg::F3T3[MNPQ]        file = 6 rec = 6000 ofs = 2167104320 len = 13436928
  reserve for tensor : df_mp2-f12-xg::FFC[MNPQ]         file = 6 rec = 6000 ofs = 2180541248 len = 13436928
  reserve for tensor : df_mp2-f12-xg::FFC[MNPj]         file = 6 rec = 6000 ofs = 2193978176 len = 1492992
  reserve for tensor : df_mp2-f12-xg::FFC[MNij]         file = 6 rec = 6000 ofs = 2195471168 len = 165888
  reserve for tensor : df_mp2-f12-xg::FFC[Mnij]         file = 6 rec = 6000 ofs = 2195637056 len = 18432
  reserve for tensor : df_mp2-f12-xg::FFC[mnij]         file = 6 rec = 6000 ofs = 2195655488 len = 2048
  reserve for tensor : df_mp2-f12-xg::FF[mnij]          file = 6 rec = 6000 ofs = 2195657536 len = 2048
  reserve for tensor : df_mp2-f12-xg::FFbarC[MNPQ]      file = 6 rec = 6000 ofs = 2195659584 len = 13436928
  reserve for tensor : df_mp2-f12-xg::FFbarC[MNPj]      file = 6 rec = 6000 ofs = 2209096512 len = 1492992
  reserve for tensor : df_mp2-f12-xg::FFbarC[MNij]      file = 6 rec = 6000 ofs = 2210589504 len = 165888
  reserve for tensor : df_mp2-f12-xg::FFbarC[Mnij]      file = 6 rec = 6000 ofs = 2210755392 len = 18432
  reserve for tensor : df_mp2-f12-xg::FFbarC[mnij]      file = 6 rec = 6000 ofs = 2210773824 len = 2048
  reserve for tensor : df_mp2-f12-xg::FFbar[mnij]       file = 6 rec = 6000 ofs = 2210775872 len = 2048
  reserve for tensor : df_mp2-f12-xg::FInt[MNF]         file = 6 rec = 6000 ofs = 2210777920 len = 1575936
  reserve for tensor : df_mp2-f12-xg::FInt[RNF]         file = 6 rec = 6000 ofs = 2212353856 len = 9805824
  reserve for tensor : df_mp2-f12-xg::FTC[MNPQ]         file = 6 rec = 6000 ofs = 2222159680 len = 13436928
  reserve for tensor : df_mp2-f12-xg::FTC[MNPj]         file = 6 rec = 6000 ofs = 2235596608 len = 1492992
  reserve for tensor : df_mp2-f12-xg::FTC[MNij]         file = 6 rec = 6000 ofs = 2237089600 len = 165888
  reserve for tensor : df_mp2-f12-xg::FTC[Mnij]         file = 6 rec = 6000 ofs = 2237255488 len = 18432
  reserve for tensor : df_mp2-f12-xg::FTC[mnij]         file = 6 rec = 6000 ofs = 2237273920 len = 2048
  reserve for tensor : df_mp2-f12-xg::FT[mnij]          file = 6 rec = 6000 ofs = 2237275968 len = 2048
  reserve for tensor : df_mp2-f12-xg::Ff1[MNPQ]         file = 6 rec = 6000 ofs = 2237278016 len = 13436928
  reserve for tensor : df_mp2-f12-xg::Ff1[RNPQ]         file = 6 rec = 6000 ofs = 2250714944 len = 83607552
  reserve for tensor : df_mp2-f12-xg::Ff1[RSPQ]         file = 6 rec = 6000 ofs = 2334322496 len = 520224768
  reserve for tensor : df_mp2-f12-xg::Ff2[MNPQ]         file = 6 rec = 6000 ofs = 2854547264 len = 13436928
  reserve for tensor : df_mp2-f12-xg::Ff2[RNPQ]         file = 6 rec = 6000 ofs = 2867984192 len = 83607552
  reserve for tensor : df_mp2-f12-xg::Ff2[RSPQ]         file = 6 rec = 6000 ofs = 2951591744 len = 520224768
  reserve for tensor : df_mp2-f12-xg::Ff3[MNPQ]         file = 6 rec = 6000 ofs = 3471816512 len = 13436928
  reserve for tensor : df_mp2-f12-xg::Ff3[RNPQ]         file = 6 rec = 6000 ofs = 3485253440 len = 83607552
  reserve for tensor : df_mp2-f12-xg::Ff3[RSPQ]         file = 6 rec = 6000 ofs = 3568860992 len = 520224768
  reserve for tensor : df_mp2-f12-xg::Har[MM]           file = 6 rec = 6000 ofs = 4089085760 len = 10368
  reserve for tensor : df_mp2-f12-xg::Har[Mr]           file = 6 rec = 6000 ofs = 4089096128 len = 10368
  reserve for tensor : df_mp2-f12-xg::Har[Mx]           file = 6 rec = 6000 ofs = 4089106496 len = 64512
  reserve for tensor : df_mp2-f12-xg::Har[RM]           file = 6 rec = 6000 ofs = 4089171008 len = 64512
  reserve for tensor : df_mp2-f12-xg::Har[RR]           file = 6 rec = 6000 ofs = 4089235520 len = 401408
  reserve for tensor : df_mp2-f12-xg::Har[ij]           file = 6 rec = 6000 ofs = 4089636928 len = 128
  reserve for tensor : df_mp2-f12-xg::Har[rI]           file = 6 rec = 6000 ofs = 4089637056 len = 4032
  reserve for tensor : df_mp2-f12-xg::Har[ri]           file = 6 rec = 6000 ofs = 4089641088 len = 1152
  reserve for tensor : df_mp2-f12-xg::Har[rs]           file = 6 rec = 6000 ofs = 4089642240 len = 10368
  reserve for tensor : df_mp2-f12-xg::Har[xI]           file = 6 rec = 6000 ofs = 4089652608 len = 25088
  reserve for tensor : df_mp2-f12-xg::Har[xb]           file = 6 rec = 6000 ofs = 4089677696 len = 39424
  reserve for tensor : df_mp2-f12-xg::Har[xi]           file = 6 rec = 6000 ofs = 4089717120 len = 7168
  reserve for tensor : df_mp2-f12-xg::Har[xs]           file = 6 rec = 6000 ofs = 4089724288 len = 64512
  reserve for tensor : df_mp2-f12-xg::Har[xy]           file = 6 rec = 6000 ofs = 4089788800 len = 401408
  reserve for tensor : df_mp2-f12-xg::ItmM[MI]          file = 6 rec = 6000 ofs = 4090190208 len = 4032
  reserve for tensor : df_mp2-f12-xg::ItmM[Mi]          file = 6 rec = 6000 ofs = 4090194240 len = 1152
  reserve for tensor : df_mp2-f12-xg::ItmM[Mr]          file = 6 rec = 6000 ofs = 4090195392 len = 10368
  reserve for tensor : df_mp2-f12-xg::ItmM[Mx]          file = 6 rec = 6000 ofs = 4090205760 len = 64512
  reserve for tensor : df_mp2-f12-xg::ItmM[RI]          file = 6 rec = 6000 ofs = 4090270272 len = 25088
  reserve for tensor : df_mp2-f12-xg::ItmM[Ri]          file = 6 rec = 6000 ofs = 4090295360 len = 7168
  reserve for tensor : df_mp2-f12-xg::ItmM[Rr]          file = 6 rec = 6000 ofs = 4090302528 len = 64512
  reserve for tensor : df_mp2-f12-xg::ItmM[Rx]          file = 6 rec = 6000 ofs = 4090367040 len = 401408
  reserve for tensor : df_mp2-f12-xg::ItmN[Ma]          file = 6 rec = 6000 ofs = 4090768448 len = 6336
  reserve for tensor : df_mp2-f12-xg::ItmN[Mx]          file = 6 rec = 6000 ofs = 4090774784 len = 64512
  reserve for tensor : df_mp2-f12-xg::ItmN[Ra]          file = 6 rec = 6000 ofs = 4090839296 len = 39424
  reserve for tensor : df_mp2-f12-xg::ItmN[Rx]          file = 6 rec = 6000 ofs = 4090878720 len = 401408
  reserve for tensor : df_mp2-f12-xg::Jinv[FF]          file = 6 rec = 6000 ofs = 4091280128 len = 184832
  reserve for tensor : df_mp2-f12-xg::Jmh[FF]           file = 6 rec = 6000 ofs = 4091464960 len = 184832
  reserve for tensor : df_mp2-f12-xg::Jmh[KK]           file = 6 rec = 6000 ofs = 4091649792 len = 401408
  reserve for tensor : df_mp2-f12-xg::K1[rsij]          file = 6 rec = 6000 ofs = 4092051200 len = 165888
  reserve for tensor : df_mp2-f12-xg::K1[xJij]          file = 6 rec = 6000 ofs = 4092217088 len = 401408
  reserve for tensor : df_mp2-f12-xg::KFC[MNPQ]         file = 6 rec = 6000 ofs = 4092618496 len = 13436928
  reserve for tensor : df_mp2-f12-xg::KFC[MNPj]         file = 6 rec = 6000 ofs = 4106055424 len = 1492992
  reserve for tensor : df_mp2-f12-xg::KFC[MNij]         file = 6 rec = 6000 ofs = 4107548416 len = 165888
  reserve for tensor : df_mp2-f12-xg::KFC[Mnij]         file = 6 rec = 6000 ofs = 4107714304 len = 18432
  reserve for tensor : df_mp2-f12-xg::KFC[mnij]         file = 6 rec = 6000 ofs = 4107732736 len = 2048
  reserve for tensor : df_mp2-f12-xg::KF[mnij]          file = 6 rec = 6000 ofs = 4107734784 len = 2048
  reserve for tensor : df_mp2-f12-xg::KFf1[MNPQ]        file = 6 rec = 6000 ofs = 4107736832 len = 13436928
  reserve for tensor : df_mp2-f12-xg::KFf2[MNPQ]        file = 6 rec = 6000 ofs = 4121173760 len = 13436928
  reserve for tensor : df_mp2-f12-xg::KFf3[MNPQ]        file = 6 rec = 6000 ofs = 4134610688 len = 13436928
  reserve for tensor : df_mp2-f12-xg::RF[mnij]          file = 6 rec = 6000 ofs = 4148047616 len = 2048
  reserve for tensor : df_mp2-f12-xg::TF[mnij]          file = 6 rec = 6000 ofs = 4148049664 len = 2048
  reserve for tensor : df_mp2-f12-xg::VF[mnij]          file = 6 rec = 6000 ofs = 4148051712 len = 2048
  reserve for tensor : df_mp2-f12-xg::XF[mnij]          file = 6 rec = 6000 ofs = 4148053760 len = 2048
  reserve for tensor : df_mp2-f12-xg::f[MM]             file = 6 rec = 6000 ofs = 4148055808 len = 10368
  reserve for tensor : df_mp2-f12-xg::f[RM]             file = 6 rec = 6000 ofs = 4148066176 len = 64512
  reserve for tensor : df_mp2-f12-xg::f[RR]             file = 6 rec = 6000 ofs = 4148130688 len = 401408
  reserve for tensor : df_mp2-f12-xg::f[ab]             file = 6 rec = 6000 ofs = 4148532096 len = 3904
  reserve for tensor : df_mp2-f12-xg::f[rs]             file = 6 rec = 6000 ofs = 4148536000 len = 10368
  reserve for tensor : df_mp2-f12-xg::f[xb]             file = 6 rec = 6000 ofs = 4148546368 len = 39424
  reserve for tensor : df_mp2-f12-xg::f[xs]             file = 6 rec = 6000 ofs = 4148585792 len = 64512
  reserve for tensor : df_mp2-f12-xg::f[xy]             file = 6 rec = 6000 ofs = 4148650304 len = 401408
  reserve for tensor : df_mp2-f12-xg::k[MM]             file = 6 rec = 6000 ofs = 4149051712 len = 10368
  reserve for tensor : df_mp2-f12-xg::k[RM]             file = 6 rec = 6000 ofs = 4149062080 len = 64512
  reserve for tensor : df_mp2-f12-xg::k[RR]             file = 6 rec = 6000 ofs = 4149126592 len = 401408
  reserve for tensor : df_mp2-f12-xg::n[rs]             file = 6 rec = 6000 ofs = 4149528000 len = 10368
  reserve for tensor : df_mp2-f12-xg::n[xs]             file = 6 rec = 6000 ofs = 4149538368 len = 64512
  reserve for tensor : df_mp2-f12-xg::n[xy]             file = 6 rec = 6000 ofs = 4149602880 len = 401408
 ==== Running InitF12Amplitudes()
 FDiskTensor: store df_mp2-f12-xg::TF[mnij] range [0,4)x[0,4)x[0,1)x[0,1)  (nSeq = 1)
    FDiskTensor: store       0 (sz 128)
 FDiskTensor: store df_mp2-f12-xg::TF[mnij] range [0,4)x[0,4)x[1,2)x[0,1)  (nSeq = 1)
    FDiskTensor: store     128 (sz 128)
 FDiskTensor: store df_mp2-f12-xg::TF[mnij] range [0,4)x[0,4)x[2,3)x[0,1)  (nSeq = 1)
    FDiskTensor: store     256 (sz 128)
 FDiskTensor: store df_mp2-f12-xg::TF[mnij] range [0,4)x[0,4)x[3,4)x[0,1)  (nSeq = 1)
    FDiskTensor: store     384 (sz 128)
 FDiskTensor: store df_mp2-f12-xg::TF[mnij] range [0,4)x[0,4)x[0,1)x[1,2)  (nSeq = 1)
    FDiskTensor: store     512 (sz 128)
 FDiskTensor: store df_mp2-f12-xg::TF[mnij] range [0,4)x[0,4)x[1,2)x[1,2)  (nSeq = 1)
    FDiskTensor: store     640 (sz 128)
 FDiskTensor: store df_mp2-f12-xg::TF[mnij] range [0,4)x[0,4)x[2,3)x[1,2)  (nSeq = 1)
    FDiskTensor: store     768 (sz 128)
 FDiskTensor: store df_mp2-f12-xg::TF[mnij] range [0,4)x[0,4)x[3,4)x[1,2)  (nSeq = 1)
    FDiskTensor: store     896 (sz 128)
 FDiskTensor: store df_mp2-f12-xg::TF[mnij] range [0,4)x[0,4)x[0,1)x[2,3)  (nSeq = 1)
    FDiskTensor: store    1024 (sz 128)
 FDiskTensor: store df_mp2-f12-xg::TF[mnij] range [0,4)x[0,4)x[1,2)x[2,3)  (nSeq = 1)
    FDiskTensor: store    1152 (sz 128)
 FDiskTensor: store df_mp2-f12-xg::TF[mnij] range [0,4)x[0,4)x[2,3)x[2,3)  (nSeq = 1)
    FDiskTensor: store    1280 (sz 128)
 FDiskTensor: store df_mp2-f12-xg::TF[mnij] range [0,4)x[0,4)x[3,4)x[2,3)  (nSeq = 1)
    FDiskTensor: store    1408 (sz 128)
 FDiskTensor: store df_mp2-f12-xg::TF[mnij] range [0,4)x[0,4)x[0,1)x[3,4)  (nSeq = 1)
    FDiskTensor: store    1536 (sz 128)
 FDiskTensor: store df_mp2-f12-xg::TF[mnij] range [0,4)x[0,4)x[1,2)x[3,4)  (nSeq = 1)
    FDiskTensor: store    1664 (sz 128)
 FDiskTensor: store df_mp2-f12-xg::TF[mnij] range [0,4)x[0,4)x[2,3)x[3,4)  (nSeq = 1)
    FDiskTensor: store    1792 (sz 128)
 FDiskTensor: store df_mp2-f12-xg::TF[mnij] range [0,4)x[0,4)x[3,4)x[3,4)  (nSeq = 1)
    FDiskTensor: store    1920 (sz 128)
 J^{-1/2} for MP2FIT basis:     EwMin = 1.173e-04  EwMax = 4.314e+02  Ratio = 2.720e-07
 FDiskTensor: store df_mp2-f12-xg::Jmh[FF] range [0,6)x[0,6)  (nSeq = 1)
    FDiskTensor: store       0 (sz 184832)
 J^{-1/2} for JKFIT basis:      EwMin = 1.289e-05  EwMax = 6.936e+02  Ratio = 1.858e-08
 FDiskTensor: store df_mp2-f12-xg::Jmh[KK] range [0,9)x[0,9)  (nSeq = 1)
    FDiskTensor: store       0 (sz 401408)
 ====================================================
 = F12-XG CALCULATIONS BEGIN ========================
 ====================================================
 ----------------------------------------------------
 - Getting the basic integrals in AO basis ----------
 ----------------------------------------------------
 Fixing algorithm 'f12xg_make_cj' to base VM.
 Transforming Algorithm: f12xg_make_cj
 VM-push {
    VM-push {
       Load      Tensor: [T30]	IB: []
       Alloc     Tensor: [T57]	IB: [0,0,0]
       Alloc     Tensor: [T274]	IB: [0,0]
       Load      Tensor: [T275]	IB: [0,0]
       Drop      Symbol: [-1]	IB: []
       Load      Tensor: [T357]	IB: [0,0,0]
       Drop      Symbol: [-1]	IB: []
       Drop      Symbol: [-1]	IB: []
       Store     Symbol: [-1]	IB: []
       Alloc     Tensor: [T58]	IB: [0,0,0]
       Alloc     Tensor: [T274]	IB: [0,0]
       Load      Tensor: [T275]	IB: [0,0]
       Drop      Symbol: [-1]	IB: []
       Load      Tensor: [T361]	IB: [0,0,0]
       Drop      Symbol: [-1]	IB: []
       Drop      Symbol: [-1]	IB: []
       Store     Symbol: [-1]	IB: []
       Drop      Symbol: [-1]	IB: []
    } VM-pop
 } VM-pop
 ExecVM Tensor Table:
    Tensor[0] -> Cabs:Ax
    Tensor[1] -> Cabs:Rx
    Tensor[2] -> CoreH:AA
    Tensor[3] -> CoreH:RA
    Tensor[4] -> CoreH:RR
    Tensor[5] -> DiracDelta
    Tensor[6] -> DiracDelta
    Tensor[7] -> DiracDelta
    Tensor[8] -> InternalDelta
    Tensor[9] -> DiracDelta
    Tensor[10] -> InternalDelta
    Tensor[11] -> DiracDelta
    Tensor[12] -> InternalDelta
    Tensor[13] -> DiracDelta
    Tensor[14] -> DiracDelta
    Tensor[15] -> InternalDelta
    Tensor[16] -> DiracDelta
    Tensor[17] -> DiracDelta
    Tensor[18] -> EDi1
    Tensor[19] -> EDi2
    Tensor[20] -> EMp1
    Tensor[21] -> EMp2
    Tensor[22] -> Nrm1
    Tensor[23] -> Nrm2
    Tensor[24] -> Orb:AI
    Tensor[25] -> Orb:Ac
    Tensor[26] -> Orb:Ae
    Tensor[27] -> Orb:Ar
    Tensor[28] -> Var1
    Tensor[29] -> Var2
    Tensor[30] -> (1.0)
    Tensor[31] -> f:CC
    Tensor[32] -> f:aa
    Tensor[33] -> f:cC
    Tensor[34] -> f:ca
    Tensor[35] -> f:cc
    Tensor[36] -> f:eC
    Tensor[37] -> f:ea
    Tensor[38] -> f:ec
    Tensor[39] -> f:ee
    Tensor[40] -> g:aa
    Tensor[41] -> g:ca
    Tensor[42] -> g:cc
    Tensor[43] -> g:ea
    Tensor[44] -> g:ec
    Tensor[45] -> g:ee
    Tensor[46] -> h:CC
    Tensor[47] -> h:aa
    Tensor[48] -> h:ca
    Tensor[49] -> h:cc
    Tensor[50] -> h:ea
    Tensor[51] -> h:ec
    Tensor[52] -> h:ee
    Tensor[53] -> df_mp2-f12-xg::AF[mnij]
    Tensor[54] -> df_mp2-f12-xg::AmpT2
    Tensor[55] -> df_mp2-f12-xg::BF[mnij]
    Tensor[56] -> df_mp2-f12-xg::CF[abij]
    Tensor[57] -> df_mp2-f12-xg::CJ[MNF]
    Tensor[58] -> df_mp2-f12-xg::CJ[RNF]
    Tensor[59] -> df_mp2-f12-xg::DF:Fec
    Tensor[60] -> df_mp2-f12-xg::DF[FIi]
    Tensor[61] -> df_mp2-f12-xg::DF[FNi]
    Tensor[62] -> df_mp2-f12-xg::DF[FSi]
    Tensor[63] -> df_mp2-f12-xg::DF[Fmi]
    Tensor[64] -> df_mp2-f12-xg::DF[Fri]
    Tensor[65] -> df_mp2-f12-xg::DF[Fxi]
    Tensor[66] -> df_mp2-f12-xg::DFbar[FJi]
    Tensor[67] -> df_mp2-f12-xg::DFbar[Fmi]
    Tensor[68] -> df_mp2-f12-xg::DFbar[Fri]
    Tensor[69] -> df_mp2-f12-xg::DFbar[Fxi]
    Tensor[70] -> df_mp2-f12-xg::DFt1N[NFi]
    Tensor[71] -> df_mp2-f12-xg::DFt1N[SFi]
    Tensor[72] -> df_mp2-f12-xg::DFt1[MFi]
    Tensor[73] -> df_mp2-f12-xg::DFt1[MKI]
    Tensor[74] -> df_mp2-f12-xg::DFt1[RKI]
    Tensor[75] -> df_mp2-f12-xg::DFt2N[FNi]
    Tensor[76] -> df_mp2-f12-xg::DFt2S[FSi]
    Tensor[77] -> df_mp2-f12-xg::DFt2[FF]
    Tensor[78] -> df_mp2-f12-xg::DFt2[FJl]
    Tensor[79] -> df_mp2-f12-xg::DFt2[FRl]
    Tensor[80] -> df_mp2-f12-xg::DFt2[Fai]
    Tensor[81] -> df_mp2-f12-xg::DFt2[Frl]
    Tensor[82] -> df_mp2-f12-xg::DFt2[Fxl]
    Tensor[83] -> df_mp2-f12-xg::DFt2[KMI]
    Tensor[84] -> df_mp2-f12-xg::DFt2[KRI]
    Tensor[85] -> df_mp2-f12-xg::DFt2m[Fmi]
    Tensor[86] -> df_mp2-f12-xg::DFtil[Fai]
    Tensor[87] -> df_mp2-f12-xg::DFtil[Fxi]
    Tensor[88] -> df_mp2-f12-xg::Dc2F1F1[FF]
    Tensor[89] -> df_mp2-f12-xg::Dc2F1F2[FF]
    Tensor[90] -> df_mp2-f12-xg::Dc2F1F3[FF]
    Tensor[91] -> df_mp2-f12-xg::Dc2F1[FF]
    Tensor[92] -> df_mp2-f12-xg::Dc2F2F2[FF]
    Tensor[93] -> df_mp2-f12-xg::Dc2F2F3[FF]
    Tensor[94] -> df_mp2-f12-xg::Dc2F3F3[FF]
    Tensor[95] -> df_mp2-f12-xg::Dc2FF[FF]
    Tensor[96] -> df_mp2-f12-xg::Dc2FT[FF]
    Tensor[97] -> df_mp2-f12-xg::Dc2K1[FF]
    Tensor[98] -> df_mp2-f12-xg::Dc2KF[FF]
    Tensor[99] -> df_mp2-f12-xg::Dl3F1[FIi]
    Tensor[100] -> df_mp2-f12-xg::Dl3F1[FNi]
    Tensor[101] -> df_mp2-f12-xg::Dl3F1[FSi]
    Tensor[102] -> df_mp2-f12-xg::Dl3F1[Fai]
    Tensor[103] -> df_mp2-f12-xg::Dl3F1[Fri]
    Tensor[104] -> df_mp2-f12-xg::Dl3F1[Fxi]
    Tensor[105] -> df_mp2-f12-xg::Dl3F1bar[FJi]
    Tensor[106] -> df_mp2-f12-xg::Dl3F1bar[Fri]
    Tensor[107] -> df_mp2-f12-xg::Dl3F1bar[Fxi]
    Tensor[108] -> df_mp2-f12-xg::Dl3F1til[Fai]
    Tensor[109] -> df_mp2-f12-xg::Dl3F1til[Fxi]
    Tensor[110] -> df_mp2-f12-xg::Dl3FF[FNi]
    Tensor[111] -> df_mp2-f12-xg::Dl3FF[FSi]
    Tensor[112] -> df_mp2-f12-xg::Dl3FF[Fmi]
    Tensor[113] -> df_mp2-f12-xg::Dl3FFbar[Fmi]
    Tensor[114] -> df_mp2-f12-xg::Dl3FT[Fmi]
    Tensor[115] -> df_mp2-f12-xg::Dl3KF[Fmi]
    Tensor[116] -> df_mp2-f12-xg::Dr3F1[FIi]
    Tensor[117] -> df_mp2-f12-xg::Dr3F1[FNi]
    Tensor[118] -> df_mp2-f12-xg::Dr3F1[FSi]
    Tensor[119] -> df_mp2-f12-xg::Dr3F1[Fai]
    Tensor[120] -> df_mp2-f12-xg::Dr3F1[Fri]
    Tensor[121] -> df_mp2-f12-xg::Dr3F1[Fxi]
    Tensor[122] -> df_mp2-f12-xg::Dr3F1bar[FJi]
    Tensor[123] -> df_mp2-f12-xg::Dr3F1bar[Fri]
    Tensor[124] -> df_mp2-f12-xg::Dr3F1bar[Fxi]
    Tensor[125] -> df_mp2-f12-xg::Dr3F1til[Fai]
    Tensor[126] -> df_mp2-f12-xg::Dr3F1til[Fxi]
    Tensor[127] -> df_mp2-f12-xg::Dr3FF[FNi]
    Tensor[128] -> df_mp2-f12-xg::Dr3FF[FSi]
    Tensor[129] -> df_mp2-f12-xg::Dr3FF[Fmi]
    Tensor[130] -> df_mp2-f12-xg::Dr3FFbar[Fmi]
    Tensor[131] -> df_mp2-f12-xg::Dr3FT[Fmi]
    Tensor[132] -> df_mp2-f12-xg::Dr3KF[Fmi]
    Tensor[133] -> df_mp2-f12-xg::EMp2F12DX[]
    Tensor[134] -> df_mp2-f12-xg::EMp2F12s[]
    Tensor[135] -> df_mp2-f12-xg::ERef
    Tensor[136] -> df_mp2-f12-xg::F1C[MJij]
    Tensor[137] -> df_mp2-f12-xg::F1C[MNPQ]
    Tensor[138] -> df_mp2-f12-xg::F1C[MNPb]
    Tensor[139] -> df_mp2-f12-xg::F1C[MNPj]
    Tensor[140] -> df_mp2-f12-xg::F1C[MNab]
    Tensor[141] -> df_mp2-f12-xg::F1C[MNij]
    Tensor[142] -> df_mp2-f12-xg::F1C[Mbij]
    Tensor[143] -> df_mp2-f12-xg::F1C[Mjab]
    Tensor[144] -> df_mp2-f12-xg::F1C[Msij]
    Tensor[145] -> df_mp2-f12-xg::F1C[Myij]
    Tensor[146] -> df_mp2-f12-xg::F1C[RJij]
    Tensor[147] -> df_mp2-f12-xg::F1C[RNPQ]
    Tensor[148] -> df_mp2-f12-xg::F1C[RNPj]
    Tensor[149] -> df_mp2-f12-xg::F1C[RNij]
    Tensor[150] -> df_mp2-f12-xg::F1C[RSPQ]
    Tensor[151] -> df_mp2-f12-xg::F1C[RSPj]
    Tensor[152] -> df_mp2-f12-xg::F1C[RSij]
    Tensor[153] -> df_mp2-f12-xg::F1C[Rbij]
    Tensor[154] -> df_mp2-f12-xg::F1C[Rrij]
    Tensor[155] -> df_mp2-f12-xg::F1C[Ryij]
    Tensor[156] -> df_mp2-f12-xg::F1C[abij]
    Tensor[157] -> df_mp2-f12-xg::F1C[ijab]
    Tensor[158] -> df_mp2-f12-xg::F1C[rJij]
    Tensor[159] -> df_mp2-f12-xg::F1C[rsij]
    Tensor[160] -> df_mp2-f12-xg::F1C[xJij]
    Tensor[161] -> df_mp2-f12-xg::F1C[xbij]
    Tensor[162] -> df_mp2-f12-xg::F1C[xrij]
    Tensor[163] -> df_mp2-f12-xg::F1C[xyij]
    Tensor[164] -> df_mp2-f12-xg::F1F1[MNPQ]
    Tensor[165] -> df_mp2-f12-xg::F1F1[RNPQ]
    Tensor[166] -> df_mp2-f12-xg::F1F1[rNPQ]
    Tensor[167] -> df_mp2-f12-xg::F1F1[xNPQ]
    Tensor[168] -> df_mp2-f12-xg::F1F1bar[MNPQ]
    Tensor[169] -> df_mp2-f12-xg::F1F1barint[MNPQ]
    Tensor[170] -> df_mp2-f12-xg::F1F2[MNPQ]
    Tensor[171] -> df_mp2-f12-xg::F1F2[RNPQ]
    Tensor[172] -> df_mp2-f12-xg::F1F2[rNPQ]
    Tensor[173] -> df_mp2-f12-xg::F1F2[xNPQ]
    Tensor[174] -> df_mp2-f12-xg::F1F2bar[MNPQ]
    Tensor[175] -> df_mp2-f12-xg::F1F2barint[MNPQ]
    Tensor[176] -> df_mp2-f12-xg::F1F3[MNPQ]
    Tensor[177] -> df_mp2-f12-xg::F1F3[RNPQ]
    Tensor[178] -> df_mp2-f12-xg::F1F3[rNPQ]
    Tensor[179] -> df_mp2-f12-xg::F1F3[xNPQ]
    Tensor[180] -> df_mp2-f12-xg::F1F3bar[MNPQ]
    Tensor[181] -> df_mp2-f12-xg::F1F3barint[MNPQ]
    Tensor[182] -> df_mp2-f12-xg::F1T1[MNPQ]
    Tensor[183] -> df_mp2-f12-xg::F1T2[MNPQ]
    Tensor[184] -> df_mp2-f12-xg::F1T3[MNPQ]
    Tensor[185] -> df_mp2-f12-xg::F1[abij]
    Tensor[186] -> df_mp2-f12-xg::F1[rsij]
    Tensor[187] -> df_mp2-f12-xg::F1[xJij]
    Tensor[188] -> df_mp2-f12-xg::F1[xbij]
    Tensor[189] -> df_mp2-f12-xg::F1[xyij]
    Tensor[190] -> df_mp2-f12-xg::F1bar[rsij]
    Tensor[191] -> df_mp2-f12-xg::F1bar[xJij]
    Tensor[192] -> df_mp2-f12-xg::F1til[xbij]
    Tensor[193] -> df_mp2-f12-xg::F1til[xyij]
    Tensor[194] -> df_mp2-f12-xg::F2F2[MNPQ]
    Tensor[195] -> df_mp2-f12-xg::F2F2[RNPQ]
    Tensor[196] -> df_mp2-f12-xg::F2F2[rNPQ]
    Tensor[197] -> df_mp2-f12-xg::F2F2[xNPQ]
    Tensor[198] -> df_mp2-f12-xg::F2F2bar[MNPQ]
    Tensor[199] -> df_mp2-f12-xg::F2F2barint[MNPQ]
    Tensor[200] -> df_mp2-f12-xg::F2F3[MNPQ]
    Tensor[201] -> df_mp2-f12-xg::F2F3[RNPQ]
    Tensor[202] -> df_mp2-f12-xg::F2F3[rNPQ]
    Tensor[203] -> df_mp2-f12-xg::F2F3[xNPQ]
    Tensor[204] -> df_mp2-f12-xg::F2F3bar[MNPQ]
    Tensor[205] -> df_mp2-f12-xg::F2F3barint[MNPQ]
    Tensor[206] -> df_mp2-f12-xg::F2T2[MNPQ]
    Tensor[207] -> df_mp2-f12-xg::F2T3[MNPQ]
    Tensor[208] -> df_mp2-f12-xg::F3F3[MNPQ]
    Tensor[209] -> df_mp2-f12-xg::F3F3[RNPQ]
    Tensor[210] -> df_mp2-f12-xg::F3F3[rNPQ]
    Tensor[211] -> df_mp2-f12-xg::F3F3[xNPQ]
    Tensor[212] -> df_mp2-f12-xg::F3F3bar[MNPQ]
    Tensor[213] -> df_mp2-f12-xg::F3F3barint[MNPQ]
    Tensor[214] -> df_mp2-f12-xg::F3T3[MNPQ]
    Tensor[215] -> df_mp2-f12-xg::FFC[MNPQ]
    Tensor[216] -> df_mp2-f12-xg::FFC[MNPj]
    Tensor[217] -> df_mp2-f12-xg::FFC[MNij]
    Tensor[218] -> df_mp2-f12-xg::FFC[Mnij]
    Tensor[219] -> df_mp2-f12-xg::FFC[mnij]
    Tensor[220] -> df_mp2-f12-xg::FF[mnij]
    Tensor[221] -> df_mp2-f12-xg::FFbarC[MNPQ]
    Tensor[222] -> df_mp2-f12-xg::FFbarC[MNPj]
    Tensor[223] -> df_mp2-f12-xg::FFbarC[MNij]
    Tensor[224] -> df_mp2-f12-xg::FFbarC[Mnij]
    Tensor[225] -> df_mp2-f12-xg::FFbarC[mnij]
    Tensor[226] -> df_mp2-f12-xg::FFbar[mnij]
    Tensor[227] -> df_mp2-f12-xg::FInt[MNF]
    Tensor[228] -> df_mp2-f12-xg::FInt[RNF]
    Tensor[229] -> df_mp2-f12-xg::FTC[MNPQ]
    Tensor[230] -> df_mp2-f12-xg::FTC[MNPj]
    Tensor[231] -> df_mp2-f12-xg::FTC[MNij]
    Tensor[232] -> df_mp2-f12-xg::FTC[Mnij]
    Tensor[233] -> df_mp2-f12-xg::FTC[mnij]
    Tensor[234] -> df_mp2-f12-xg::FT[mnij]
    Tensor[235] -> df_mp2-f12-xg::Ff1[MNPQ]
    Tensor[236] -> df_mp2-f12-xg::Ff1[RNPQ]
    Tensor[237] -> df_mp2-f12-xg::Ff1[RSPQ]
    Tensor[238] -> df_mp2-f12-xg::Ff2[MNPQ]
    Tensor[239] -> df_mp2-f12-xg::Ff2[RNPQ]
    Tensor[240] -> df_mp2-f12-xg::Ff2[RSPQ]
    Tensor[241] -> df_mp2-f12-xg::Ff3[MNPQ]
    Tensor[242] -> df_mp2-f12-xg::Ff3[RNPQ]
    Tensor[243] -> df_mp2-f12-xg::Ff3[RSPQ]
    Tensor[244] -> df_mp2-f12-xg::GammaC[K]
    Tensor[245] -> df_mp2-f12-xg::GammaT[K]
    Tensor[246] -> df_mp2-f12-xg::Gamma[K]
    Tensor[247] -> df_mp2-f12-xg::Gamma[MN]
    Tensor[248] -> df_mp2-f12-xg::Har[MM]
    Tensor[249] -> df_mp2-f12-xg::Har[Mr]
    Tensor[250] -> df_mp2-f12-xg::Har[Mx]
    Tensor[251] -> df_mp2-f12-xg::Har[RM]
    Tensor[252] -> df_mp2-f12-xg::Har[RR]
    Tensor[253] -> df_mp2-f12-xg::Har[ij]
    Tensor[254] -> df_mp2-f12-xg::Har[rI]
    Tensor[255] -> df_mp2-f12-xg::Har[ri]
    Tensor[256] -> df_mp2-f12-xg::Har[rs]
    Tensor[257] -> df_mp2-f12-xg::Har[xI]
    Tensor[258] -> df_mp2-f12-xg::Har[xb]
    Tensor[259] -> df_mp2-f12-xg::Har[xi]
    Tensor[260] -> df_mp2-f12-xg::Har[xs]
    Tensor[261] -> df_mp2-f12-xg::Har[xy]
    Tensor[262] -> df_mp2-f12-xg::ItmM[MI]
    Tensor[263] -> df_mp2-f12-xg::ItmM[Mi]
    Tensor[264] -> df_mp2-f12-xg::ItmM[Mr]
    Tensor[265] -> df_mp2-f12-xg::ItmM[Mx]
    Tensor[266] -> df_mp2-f12-xg::ItmM[RI]
    Tensor[267] -> df_mp2-f12-xg::ItmM[Ri]
    Tensor[268] -> df_mp2-f12-xg::ItmM[Rr]
    Tensor[269] -> df_mp2-f12-xg::ItmM[Rx]
    Tensor[270] -> df_mp2-f12-xg::ItmN[Ma]
    Tensor[271] -> df_mp2-f12-xg::ItmN[Mx]
    Tensor[272] -> df_mp2-f12-xg::ItmN[Ra]
    Tensor[273] -> df_mp2-f12-xg::ItmN[Rx]
    Tensor[274] -> df_mp2-f12-xg::Jinv[FF]
    Tensor[275] -> df_mp2-f12-xg::Jmh[FF]
    Tensor[276] -> df_mp2-f12-xg::Jmh[KK]
    Tensor[277] -> df_mp2-f12-xg::K1[rsij]
    Tensor[278] -> df_mp2-f12-xg::K1[xJij]
    Tensor[279] -> df_mp2-f12-xg::K:eecc
    Tensor[280] -> df_mp2-f12-xg::KFC[MNPQ]
    Tensor[281] -> df_mp2-f12-xg::KFC[MNPj]
    Tensor[282] -> df_mp2-f12-xg::KFC[MNij]
    Tensor[283] -> df_mp2-f12-xg::KFC[Mnij]
    Tensor[284] -> df_mp2-f12-xg::KFC[mnij]
    Tensor[285] -> df_mp2-f12-xg::KF[mnij]
    Tensor[286] -> df_mp2-f12-xg::KFf1[MNPQ]
    Tensor[287] -> df_mp2-f12-xg::KFf2[MNPQ]
    Tensor[288] -> df_mp2-f12-xg::KFf3[MNPQ]
    Tensor[289] -> df_mp2-f12-xg::RF[mnij]
    Tensor[290] -> df_mp2-f12-xg::TF12[aaii]
    Tensor[291] -> df_mp2-f12-xg::TF[mnij]
    Tensor[292] -> df_mp2-f12-xg::Tmp[mnij]
    Tensor[293] -> df_mp2-f12-xg::VF[mnij]
    Tensor[294] -> df_mp2-f12-xg::XF[mnij]
    Tensor[295] -> df_mp2-f12-xg::f[MM]
    Tensor[296] -> df_mp2-f12-xg::f[RM]
    Tensor[297] -> df_mp2-f12-xg::f[RR]
    Tensor[298] -> df_mp2-f12-xg::f[ab]
    Tensor[299] -> df_mp2-f12-xg::f[rI]
    Tensor[300] -> df_mp2-f12-xg::f[ri]
    Tensor[301] -> df_mp2-f12-xg::f[rs]
    Tensor[302] -> df_mp2-f12-xg::f[xI]
    Tensor[303] -> df_mp2-f12-xg::f[xb]
    Tensor[304] -> df_mp2-f12-xg::f[xi]
    Tensor[305] -> df_mp2-f12-xg::f[xs]
    Tensor[306] -> df_mp2-f12-xg::f[xy]
    Tensor[307] -> (F|F12|F)
    Tensor[308] -> (AA|F12|F)
    Tensor[309] -> (RA|F12|F)
    Tensor[310] -> (F|F12|F)
    Tensor[311] -> (AA|F12|F)
    Tensor[312] -> (RA|F12|F)
    Tensor[313] -> (F|F12|F)
    Tensor[314] -> (AA|F12|F)
    Tensor[315] -> (RA|F12|F)
    Tensor[316] -> (F|[[Del,F],F]|F)
    Tensor[317] -> (AA|[[Del,F],F]|F)
    Tensor[318] -> (AR|[[Del,F],F]|F)
    Tensor[319] -> (F|[[Del,F1],F2]|F)
    Tensor[320] -> (AA|[[Del,F1],F2]|F)
    Tensor[321] -> (AR|[[Del,F1],F2]|F)
    Tensor[322] -> (F|[[Del,F1],F2]|F)
    Tensor[323] -> (AA|[[Del,F1],F2]|F)
    Tensor[324] -> (AR|[[Del,F1],F2]|F)
    Tensor[325] -> (F|F12|F)
    Tensor[326] -> (AA|F12|F)
    Tensor[327] -> (AR|F12|F)
    Tensor[328] -> (RA|F12|F)
    Tensor[329] -> (F|F12|F)
    Tensor[330] -> (AA|F12|F)
    Tensor[331] -> (RA|F12|F)
    Tensor[332] -> (F|F12|F)
    Tensor[333] -> (AA|F12|F)
    Tensor[334] -> (RA|F12|F)
    Tensor[335] -> (F|[[Del,F],F]|F)
    Tensor[336] -> (AA|[[Del,F],F]|F)
    Tensor[337] -> (AR|[[Del,F],F]|F)
    Tensor[338] -> (F|[[Del,F1],F2]|F)
    Tensor[339] -> (AA|[[Del,F1],F2]|F)
    Tensor[340] -> (AR|[[Del,F1],F2]|F)
    Tensor[341] -> (F|F12|F)
    Tensor[342] -> (AA|F12|F)
    Tensor[343] -> (AR|F12|F)
    Tensor[344] -> (RA|F12|F)
    Tensor[345] -> (F|F12|F)
    Tensor[346] -> (AA|F12|F)
    Tensor[347] -> (RA|F12|F)
    Tensor[348] -> (F|[[Del,F],F]|F)
    Tensor[349] -> (AA|[[Del,F],F]|F)
    Tensor[350] -> (AR|[[Del,F],F]|F)
    Tensor[351] -> (F|F12|F)
    Tensor[352] -> (AA|F12|F)
    Tensor[353] -> (AR|F12|F)
    Tensor[354] -> (RA|F12|F)
    Tensor[355] -> (F|r^-1|F)
    Tensor[356] -> (K|r^-1|K)
    Tensor[357] -> (AA|r^-1|F)
    Tensor[358] -> (AA|r^-1|K)
    Tensor[359] -> (AR|r^-1|K)
    Tensor[360] -> (AR|r^-1|F)
    Tensor[361] -> (RA|r^-1|F)
    Tensor[362] -> (RR|r^-1|K)
    Tensor[363] -> (F|F12/r|F)
    Tensor[364] -> (AA|F12/r|F)
    Tensor[365] -> (F|F12/r|F)
    Tensor[366] -> (AA|F12/r|F)
    Tensor[367] -> (F|F12/r|F)
    Tensor[368] -> (AA|F12/r|F)
    Tensor[369] -> df_mp2-f12-xg::j[MM]
    Tensor[370] -> df_mp2-f12-xg::j[RM]
    Tensor[371] -> df_mp2-f12-xg::j[RR]
    Tensor[372] -> df_mp2-f12-xg::k[MM]
    Tensor[373] -> df_mp2-f12-xg::k[RM]
    Tensor[374] -> df_mp2-f12-xg::k[RR]
    Tensor[375] -> df_mp2-f12-xg::n[rI]
    Tensor[376] -> df_mp2-f12-xg::n[ra]
    Tensor[377] -> df_mp2-f12-xg::n[ri]
    Tensor[378] -> df_mp2-f12-xg::n[rs]
    Tensor[379] -> df_mp2-f12-xg::n[xI]
    Tensor[380] -> df_mp2-f12-xg::n[xa]
    Tensor[381] -> df_mp2-f12-xg::n[xi]
    Tensor[382] -> df_mp2-f12-xg::n[xs]
    Tensor[383] -> df_mp2-f12-xg::n[xy]
    Tensor[384] -> df_mp2-f12-xg::x[Ma]
    Tensor[385] -> df_mp2-f12-xg::x[Mi]
    Tensor[386] -> df_mp2-f12-xg::x[Mr]
    Tensor[387] -> df_mp2-f12-xg::x[Mx]
    Tensor[388] -> df_mp2-f12-xg::x[Rr]
    Tensor[389] -> df_mp2-f12-xg::x[Rx]
 Executing Algorithm: f12xg_make_cj
 Load/Alloc: iSymbol=30 [(1.0)]  nSymbols=1
 Load/Alloc: iSymbol=57 [df_mp2-f12-xg::CJ[MNF]]  nSymbols=2
 Load/Alloc: iSymbol=274 [df_mp2-f12-xg::Jinv[FF]]  nSymbols=3
 FDiskTensor: load df_mp2-f12-xg::Jmh[FF] range [0,6)x[0,6)  (nSeq = 1)
    FDiskTensor: load        0 (sz 184832)
 Load/Alloc: iSymbol=275 [df_mp2-f12-xg::Jmh[FF]]  nSymbols=4
 Contract  {-2} += 1 * {-1} {-1} { De:13 Co:00 } { IB: {-1}:[0,0] {-1}:[0,0] }
 Contract  {-2} += 1 * {-1} {-1} { De:13 Co:00 } { IB: {-1}:[0,0] {-1}:[0,0] }
 Store/Drop: iSymbol=-1 [df_mp2-f12-xg::Jmh[FF]]  nSymbols=4
 VM state iterator stack:
   [ -1] (filler - may not be referenced)
 VM state symbol stack:
   [ -3] (1.0)[]                        memory: 0 kb
   [ -2] df_mp2-f12-xg::CJ[MNF][0,0,0]  memory: 1542 kb
   [ -1] df_mp2-f12-xg::Jinv[FF][0,0]   memory: 186 kb
 Load/Alloc: iSymbol=357 [(AA|r^-1|F)]  nSymbols=4
 Contract  {-3} += 1 * {-1} {-2} { De:014 Co:20 } { IB: {-1}:[0,0,0] {-2}:[0,0] }
 Contract  {-3} += 1 * {-1} {-2} { De:014 Co:20 } { IB: {-1}:[0,0,0] {-2}:[0,0] }
 Store/Drop: iSymbol=-1 [(AA|r^-1|F)]  nSymbols=4
 VM state iterator stack:
   [ -1] (filler - may not be referenced)
 VM state symbol stack:
   [ -3] (1.0)[]                        memory: 0 kb
   [ -2] df_mp2-f12-xg::CJ[MNF][0,0,0]  memory: 1542 kb
   [ -1] df_mp2-f12-xg::Jinv[FF][0,0]   memory: 186 kb
 Store/Drop: iSymbol=-1 [df_mp2-f12-xg::Jinv[FF]]  nSymbols=3
 VM state iterator stack:
   [ -1] (filler - may not be referenced)
 VM state symbol stack:
   [ -2] (1.0)[]                        memory: 0 kb
   [ -1] df_mp2-f12-xg::CJ[MNF][0,0,0]  memory: 1542 kb
 Store/Drop: iSymbol=-1 [df_mp2-f12-xg::CJ[MNF]]  nSymbols=2
 FDiskTensor: store df_mp2-f12-xg::CJ[MNF] range [0,2)x[0,2)x[0,6)  (nSeq = 1)
    FDiskTensor: store       0 (sz 1575936)
 VM state iterator stack:
   [ -1] (filler - may not be referenced)
 VM state symbol stack:
   [ -1] (1.0)[]                        memory: 0 kb
 Load/Alloc: iSymbol=58 [df_mp2-f12-xg::CJ[RNF]]  nSymbols=2
 Load/Alloc: iSymbol=274 [df_mp2-f12-xg::Jinv[FF]]  nSymbols=3
 FDiskTensor: load df_mp2-f12-xg::Jmh[FF] range [0,6)x[0,6)  (nSeq = 1)
    FDiskTensor: load        0 (sz 184832)
 Load/Alloc: iSymbol=275 [df_mp2-f12-xg::Jmh[FF]]  nSymbols=4
 Contract  {-2} += 1 * {-1} {-1} { De:13 Co:00 } { IB: {-1}:[0,0] {-1}:[0,0] }
 Contract  {-2} += 1 * {-1} {-1} { De:13 Co:00 } { IB: {-1}:[0,0] {-1}:[0,0] }
 Store/Drop: iSymbol=-1 [df_mp2-f12-xg::Jmh[FF]]  nSymbols=4
 VM state iterator stack:
   [ -1] (filler - may not be referenced)
 VM state symbol stack:
   [ -3] (1.0)[]                        memory: 0 kb
   [ -2] df_mp2-f12-xg::CJ[RNF][0,0,0]  memory: 9592 kb
   [ -1] df_mp2-f12-xg::Jinv[FF][0,0]   memory: 186 kb
 Load/Alloc: iSymbol=361 [(RA|r^-1|F)]  nSymbols=4
 Contract  {-3} += 1 * {-1} {-2} { De:014 Co:20 } { IB: {-1}:[0,0,0] {-2}:[0,0] }
 Contract  {-3} += 1 * {-1} {-2} { De:014 Co:20 } { IB: {-1}:[0,0,0] {-2}:[0,0] }
 Store/Drop: iSymbol=-1 [(RA|r^-1|F)]  nSymbols=4
 VM state iterator stack:
   [ -1] (filler - may not be referenced)
 VM state symbol stack:
   [ -3] (1.0)[]                        memory: 0 kb
   [ -2] df_mp2-f12-xg::CJ[RNF][0,0,0]  memory: 9592 kb
   [ -1] df_mp2-f12-xg::Jinv[FF][0,0]   memory: 186 kb
 Store/Drop: iSymbol=-1 [df_mp2-f12-xg::Jinv[FF]]  nSymbols=3
 VM state iterator stack:
   [ -1] (filler - may not be referenced)
 VM state symbol stack:
   [ -2] (1.0)[]                        memory: 0 kb
   [ -1] df_mp2-f12-xg::CJ[RNF][0,0,0]  memory: 9592 kb
 Store/Drop: iSymbol=-1 [df_mp2-f12-xg::CJ[RNF]]  nSymbols=2
 FDiskTensor: store df_mp2-f12-xg::CJ[RNF] range [0,9)x[0,2)x[0,6)  (nSeq = 1)
    FDiskTensor: store       0 (sz 9805824)
 VM state iterator stack:
   [ -1] (filler - may not be referenced)
 VM state symbol stack:
   [ -1] (1.0)[]                        memory: 0 kb
 Store/Drop: iSymbol=-1 [(1.0)]  nSymbols=1
 VM state iterator stack:
   [ -1] (filler - may not be referenced)
 VM state symbol stack:
 Fixing algorithm 'f12xg_make_Ffi_intermmediates' to base VM.
 Transforming Algorithm: f12xg_make_Ffi_intermmediates
 VM-push {
    VM-push {
       Load      Tensor: [T30]	IB: []
       Load      Tensor: [T57]	IB: [0,0,0]
       Alloc     Tensor: [T235]	IB: [0,0,0,0]
       Load      Tensor: [T326]	IB: [0,0,0]
       Drop      Symbol: [-1]	IB: []
       Load      Tensor: [T325]	IB: [0,0]
       Alloc     Tensor: [T227]	IB: [0,0,0]
       Drop      Symbol: [-1]	IB: []
       Drop      Symbol: [-1]	IB: []
       Store     Symbol: [-1]	IB: []
       Alloc     Tensor: [T238]	IB: [0,0,0,0]
       Load      Tensor: [T342]	IB: [0,0,0]
       Drop      Symbol: [-1]	IB: []
       Load      Tensor: [T341]	IB: [0,0]
       Alloc     Tensor: [T227]	IB: [0,0,0]
       Drop      Symbol: [-1]	IB: []
       Drop      Symbol: [-1]	IB: []
       Store     Symbol: [-1]	IB: []
       Alloc     Tensor: [T241]	IB: [0,0,0,0]
       Load      Tensor: [T352]	IB: [0,0,0]
       Drop      Symbol: [-1]	IB: []
       Load      Tensor: [T351]	IB: [0,0]
       Alloc     Tensor: [T227]	IB: [0,0,0]
       Drop      Symbol: [-1]	IB: []
       Drop      Symbol: [-1]	IB: []
       Store     Symbol: [-1]	IB: []
       Load      Tensor: [T58]	IB: [0,0,0]
       Load      Tensor: [T328]	IB: [0,0,0]
       Alloc     Tensor: [T236]	IB: [0,0,0,0]
       Load      Tensor: [T326]	IB: [0,0,0]
       Drop      Symbol: [-1]	IB: []
       Load      Tensor: [T325]	IB: [0,0]
       Alloc     Tensor: [T228]	IB: [0,0,0]
       Drop      Symbol: [-1]	IB: []
       Drop      Symbol: [-1]	IB: []
       Store     Symbol: [-1]	IB: []
       Drop      Symbol: [-1]	IB: []
       Load      Tensor: [T344]	IB: [0,0,0]
       Alloc     Tensor: [T239]	IB: [0,0,0,0]
       Load      Tensor: [T342]	IB: [0,0,0]
       Drop      Symbol: [-1]	IB: []
       Load      Tensor: [T341]	IB: [0,0]
       Alloc     Tensor: [T228]	IB: [0,0,0]
       Drop      Symbol: [-1]	IB: []
       Drop      Symbol: [-1]	IB: []
       Store     Symbol: [-1]	IB: []
       Drop      Symbol: [-1]	IB: []
       Load      Tensor: [T354]	IB: [0,0,0]
       Alloc     Tensor: [T242]	IB: [0,0,0,0]
       Load      Tensor: [T352]	IB: [0,0,0]
       Drop      Symbol: [-1]	IB: []
       Load      Tensor: [T351]	IB: [0,0]
       Alloc     Tensor: [T228]	IB: [0,0,0]
       Drop      Symbol: [-1]	IB: []
       Drop      Symbol: [-1]	IB: []
       Store     Symbol: [-1]	IB: []
       Drop      Symbol: [-1]	IB: []
       Load      Tensor: [T328]	IB: [0,0,0]
       Alloc     Tensor: [T237]	IB: [0,0,0,0]
       Load      Tensor: [T326]	IB: [0,0,0]
       Drop      Symbol: [-1]	IB: []
       Load      Tensor: [T325]	IB: [0,0]
       Alloc     Tensor: [T228]	IB: [0,0,0]
       Drop      Symbol: [-1]	IB: []
       Drop      Symbol: [-1]	IB: []
       Store     Symbol: [-1]	IB: []
       Drop      Symbol: [-1]	IB: []
       Load      Tensor: [T344]	IB: [0,0,0]
       Alloc     Tensor: [T240]	IB: [0,0,0,0]
       Load      Tensor: [T342]	IB: [0,0,0]
       Drop      Symbol: [-1]	IB: []
       Load      Tensor: [T341]	IB: [0,0]
       Alloc     Tensor: [T228]	IB: [0,0,0]
       Drop      Symbol: [-1]	IB: []
       Drop      Symbol: [-1]	IB: []
       Store     Symbol: [-1]	IB: []
       Drop      Symbol: [-1]	IB: []
       Load      Tensor: [T354]	IB: [0,0,0]
       Alloc     Tensor: [T243]	IB: [0,0,0,0]
       Load      Tensor: [T352]	IB: [0,0,0]
       Drop      Symbol: [-1]	IB: []
       Load      Tensor: [T351]	IB: [0,0]
       Alloc     Tensor: [T228]	IB: [0,0,0]
       Drop      Symbol: [-1]	IB: []
       Drop      Symbol: [-1]	IB: []
       Store     Symbol: [-1]	IB: []
       Drop      Symbol: [-1]	IB: []
       Drop      Symbol: [-1]	IB: []
       Alloc     Tensor: [T286]	IB: [0,0,0,0]
       Load      Tensor: [T364]	IB: [0,0,0]
       Drop      Symbol: [-1]	IB: []
       Load      Tensor: [T363]	IB: [0,0]
       Alloc     Tensor: [T227]	IB: [0,0,0]
       Drop      Symbol: [-1]	IB: []
       Drop      Symbol: [-1]	IB: []
       Store     Symbol: [-1]	IB: []
       Alloc     Tensor: [T287]	IB: [0,0,0,0]
       Load      Tensor: [T366]	IB: [0,0,0]
       Drop      Symbol: [-1]	IB: []
       Load      Tensor: [T365]	IB: [0,0]
       Alloc     Tensor: [T227]	IB: [0,0,0]
       Drop      Symbol: [-1]	IB: []
       Drop      Symbol: [-1]	IB: []
       Store     Symbol: [-1]	IB: []
       Alloc     Tensor: [T288]	IB: [0,0,0,0]
       Load      Tensor: [T368]	IB: [0,0,0]
       Drop      Symbol: [-1]	IB: []
       Load      Tensor: [T367]	IB: [0,0]
       Alloc     Tensor: [T227]	IB: [0,0,0]
       Drop      Symbol: [-1]	IB: []
       Drop      Symbol: [-1]	IB: []
       Store     Symbol: [-1]	IB: []
       Drop      Symbol: [-1]	IB: []
       Drop      Symbol: [-1]	IB: []
    } VM-pop
 } VM-pop
 ExecVM Tensor Table:
    Tensor[0] -> Cabs:Ax
    Tensor[1] -> Cabs:Rx
    Tensor[2] -> CoreH:AA
    Tensor[3] -> CoreH:RA
    Tensor[4] -> CoreH:RR
    Tensor[5] -> DiracDelta
    Tensor[6] -> DiracDelta
    Tensor[7] -> DiracDelta
    Tensor[8] -> InternalDelta
    Tensor[9] -> DiracDelta
    Tensor[10] -> InternalDelta
    Tensor[11] -> DiracDelta
    Tensor[12] -> InternalDelta
    Tensor[13] -> DiracDelta
    Tensor[14] -> DiracDelta
    Tensor[15] -> InternalDelta
    Tensor[16] -> DiracDelta
    Tensor[17] -> DiracDelta
    Tensor[18] -> EDi1
    Tensor[19] -> EDi2
    Tensor[20] -> EMp1
    Tensor[21] -> EMp2
    Tensor[22] -> Nrm1
    Tensor[23] -> Nrm2
    Tensor[24] -> Orb:AI
    Tensor[25] -> Orb:Ac
    Tensor[26] -> Orb:Ae
    Tensor[27] -> Orb:Ar
    Tensor[28] -> Var1
    Tensor[29] -> Var2
    Tensor[30] -> (1.0)
    Tensor[31] -> f:CC
    Tensor[32] -> f:aa
    Tensor[33] -> f:cC
    Tensor[34] -> f:ca
    Tensor[35] -> f:cc
    Tensor[36] -> f:eC
    Tensor[37] -> f:ea
    Tensor[38] -> f:ec
    Tensor[39] -> f:ee
    Tensor[40] -> g:aa
    Tensor[41] -> g:ca
    Tensor[42] -> g:cc
    Tensor[43] -> g:ea
    Tensor[44] -> g:ec
    Tensor[45] -> g:ee
    Tensor[46] -> h:CC
    Tensor[47] -> h:aa
    Tensor[48] -> h:ca
    Tensor[49] -> h:cc
    Tensor[50] -> h:ea
    Tensor[51] -> h:ec
    Tensor[52] -> h:ee
    Tensor[53] -> df_mp2-f12-xg::AF[mnij]
    Tensor[54] -> df_mp2-f12-xg::AmpT2
    Tensor[55] -> df_mp2-f12-xg::BF[mnij]
    Tensor[56] -> df_mp2-f12-xg::CF[abij]
    Tensor[57] -> df_mp2-f12-xg::CJ[MNF]
    Tensor[58] -> df_mp2-f12-xg::CJ[RNF]
    Tensor[59] -> df_mp2-f12-xg::DF:Fec
    Tensor[60] -> df_mp2-f12-xg::DF[FIi]
    Tensor[61] -> df_mp2-f12-xg::DF[FNi]
    Tensor[62] -> df_mp2-f12-xg::DF[FSi]
    Tensor[63] -> df_mp2-f12-xg::DF[Fmi]
    Tensor[64] -> df_mp2-f12-xg::DF[Fri]
    Tensor[65] -> df_mp2-f12-xg::DF[Fxi]
    Tensor[66] -> df_mp2-f12-xg::DFbar[FJi]
    Tensor[67] -> df_mp2-f12-xg::DFbar[Fmi]
    Tensor[68] -> df_mp2-f12-xg::DFbar[Fri]
    Tensor[69] -> df_mp2-f12-xg::DFbar[Fxi]
    Tensor[70] -> df_mp2-f12-xg::DFt1N[NFi]
    Tensor[71] -> df_mp2-f12-xg::DFt1N[SFi]
    Tensor[72] -> df_mp2-f12-xg::DFt1[MFi]
    Tensor[73] -> df_mp2-f12-xg::DFt1[MKI]
    Tensor[74] -> df_mp2-f12-xg::DFt1[RKI]
    Tensor[75] -> df_mp2-f12-xg::DFt2N[FNi]
    Tensor[76] -> df_mp2-f12-xg::DFt2S[FSi]
    Tensor[77] -> df_mp2-f12-xg::DFt2[FF]
    Tensor[78] -> df_mp2-f12-xg::DFt2[FJl]
    Tensor[79] -> df_mp2-f12-xg::DFt2[FRl]
    Tensor[80] -> df_mp2-f12-xg::DFt2[Fai]
    Tensor[81] -> df_mp2-f12-xg::DFt2[Frl]
    Tensor[82] -> df_mp2-f12-xg::DFt2[Fxl]
    Tensor[83] -> df_mp2-f12-xg::DFt2[KMI]
    Tensor[84] -> df_mp2-f12-xg::DFt2[KRI]
    Tensor[85] -> df_mp2-f12-xg::DFt2m[Fmi]
    Tensor[86] -> df_mp2-f12-xg::DFtil[Fai]
    Tensor[87] -> df_mp2-f12-xg::DFtil[Fxi]
    Tensor[88] -> df_mp2-f12-xg::Dc2F1F1[FF]
    Tensor[89] -> df_mp2-f12-xg::Dc2F1F2[FF]
    Tensor[90] -> df_mp2-f12-xg::Dc2F1F3[FF]
    Tensor[91] -> df_mp2-f12-xg::Dc2F1[FF]
    Tensor[92] -> df_mp2-f12-xg::Dc2F2F2[FF]
    Tensor[93] -> df_mp2-f12-xg::Dc2F2F3[FF]
    Tensor[94] -> df_mp2-f12-xg::Dc2F3F3[FF]
    Tensor[95] -> df_mp2-f12-xg::Dc2FF[FF]
    Tensor[96] -> df_mp2-f12-xg::Dc2FT[FF]
    Tensor[97] -> df_mp2-f12-xg::Dc2K1[FF]
    Tensor[98] -> df_mp2-f12-xg::Dc2KF[FF]
    Tensor[99] -> df_mp2-f12-xg::Dl3F1[FIi]
    Tensor[100] -> df_mp2-f12-xg::Dl3F1[FNi]
    Tensor[101] -> df_mp2-f12-xg::Dl3F1[FSi]
    Tensor[102] -> df_mp2-f12-xg::Dl3F1[Fai]
    Tensor[103] -> df_mp2-f12-xg::Dl3F1[Fri]
    Tensor[104] -> df_mp2-f12-xg::Dl3F1[Fxi]
    Tensor[105] -> df_mp2-f12-xg::Dl3F1bar[FJi]
    Tensor[106] -> df_mp2-f12-xg::Dl3F1bar[Fri]
    Tensor[107] -> df_mp2-f12-xg::Dl3F1bar[Fxi]
    Tensor[108] -> df_mp2-f12-xg::Dl3F1til[Fai]
    Tensor[109] -> df_mp2-f12-xg::Dl3F1til[Fxi]
    Tensor[110] -> df_mp2-f12-xg::Dl3FF[FNi]
    Tensor[111] -> df_mp2-f12-xg::Dl3FF[FSi]
    Tensor[112] -> df_mp2-f12-xg::Dl3FF[Fmi]
    Tensor[113] -> df_mp2-f12-xg::Dl3FFbar[Fmi]
    Tensor[114] -> df_mp2-f12-xg::Dl3FT[Fmi]
    Tensor[115] -> df_mp2-f12-xg::Dl3KF[Fmi]
    Tensor[116] -> df_mp2-f12-xg::Dr3F1[FIi]
    Tensor[117] -> df_mp2-f12-xg::Dr3F1[FNi]
    Tensor[118] -> df_mp2-f12-xg::Dr3F1[FSi]
    Tensor[119] -> df_mp2-f12-xg::Dr3F1[Fai]
    Tensor[120] -> df_mp2-f12-xg::Dr3F1[Fri]
    Tensor[121] -> df_mp2-f12-xg::Dr3F1[Fxi]
    Tensor[122] -> df_mp2-f12-xg::Dr3F1bar[FJi]
    Tensor[123] -> df_mp2-f12-xg::Dr3F1bar[Fri]
    Tensor[124] -> df_mp2-f12-xg::Dr3F1bar[Fxi]
    Tensor[125] -> df_mp2-f12-xg::Dr3F1til[Fai]
    Tensor[126] -> df_mp2-f12-xg::Dr3F1til[Fxi]
    Tensor[127] -> df_mp2-f12-xg::Dr3FF[FNi]
    Tensor[128] -> df_mp2-f12-xg::Dr3FF[FSi]
    Tensor[129] -> df_mp2-f12-xg::Dr3FF[Fmi]
    Tensor[130] -> df_mp2-f12-xg::Dr3FFbar[Fmi]
    Tensor[131] -> df_mp2-f12-xg::Dr3FT[Fmi]
    Tensor[132] -> df_mp2-f12-xg::Dr3KF[Fmi]
    Tensor[133] -> df_mp2-f12-xg::EMp2F12DX[]
    Tensor[134] -> df_mp2-f12-xg::EMp2F12s[]
    Tensor[135] -> df_mp2-f12-xg::ERef
    Tensor[136] -> df_mp2-f12-xg::F1C[MJij]
    Tensor[137] -> df_mp2-f12-xg::F1C[MNPQ]
    Tensor[138] -> df_mp2-f12-xg::F1C[MNPb]
    Tensor[139] -> df_mp2-f12-xg::F1C[MNPj]
    Tensor[140] -> df_mp2-f12-xg::F1C[MNab]
    Tensor[141] -> df_mp2-f12-xg::F1C[MNij]
    Tensor[142] -> df_mp2-f12-xg::F1C[Mbij]
    Tensor[143] -> df_mp2-f12-xg::F1C[Mjab]
    Tensor[144] -> df_mp2-f12-xg::F1C[Msij]
    Tensor[145] -> df_mp2-f12-xg::F1C[Myij]
[...]
   Sizes in current block:        4       4       1       1   -- offsets:        0       0       0       0

 Block  [    i    j   0   0 ]
                      0             1             2             3   
        0       0.02061018   -0.00012716    0.0           0.0       
        1      -0.00012716    0.01351301    0.0           0.0       
        2       0.0           0.0           0.01331661    0.0       
        3       0.0           0.0           0.0           0.01331661
   IrrepBlock ir(0)=0 ir(1)=0, SlowIdx blocks:    1   0
   Sizes in current block:        4       4       1       1   -- offsets:        0       0       1       0

 Block  [    i    j   1   0 ]
                      0             1             2             3   
        0      -0.00012716    0.01481689    0.0           0.0       
        1       0.02076408    0.00140981    0.0           0.0       
        2       0.0           0.0           0.00031270    0.0       
        3       0.0           0.0           0.0           0.00031270
   IrrepBlock ir(0)=0 ir(1)=0, SlowIdx blocks:    2   0
   Sizes in current block:        4       4       1       1   -- offsets:        0       0       2       0

 Block  [    i    j   2   0 ]
                      0             1             2             3   
        0       0.0           0.0           0.01462666    0.0       
        1       0.0           0.0           0.00043061    0.0       
        2       0.02076498    0.00043912    0.0           0.0       
        3       0.0           0.0           0.0           0.0       
   IrrepBlock ir(0)=0 ir(1)=0, SlowIdx blocks:    3   0
   Sizes in current block:        4       4       1       1   -- offsets:        0       0       3       0

 Block  [    i    j   3   0 ]
                      0             1             2             3   
        0       0.0           0.0           0.0           0.01462666
        1       0.0           0.0           0.0           0.00043061
        2       0.0           0.0           0.0           0.0       
        3       0.02076498    0.00043912    0.0           0.0       
   IrrepBlock ir(0)=0 ir(1)=0, SlowIdx blocks:    0   1
   Sizes in current block:        4       4       1       1   -- offsets:        0       0       0       1

 Block  [    i    j   0   1 ]
                      0             1             2             3   
        0      -0.00012716    0.02076408    0.0           0.0       
        1       0.01481689    0.00140981    0.0           0.0       
        2       0.0           0.0           0.00031270    0.0       
        3       0.0           0.0           0.0           0.00031270
   IrrepBlock ir(0)=0 ir(1)=0, SlowIdx blocks:    1   1
   Sizes in current block:        4       4       1       1   -- offsets:        0       0       1       1

 Block  [    i    j   1   1 ]
                      0             1             2             3   
        0       0.01351301    0.00140981    0.0           0.0       
        1       0.00140981    0.02453839    0.0           0.0       
        2       0.0           0.0           0.00676395    0.0       
        3       0.0           0.0           0.0           0.00676395
   IrrepBlock ir(0)=0 ir(1)=0, SlowIdx blocks:    2   1
   Sizes in current block:        4       4       1       1   -- offsets:        0       0       2       1

 Block  [    i    j   2   1 ]
                      0             1             2             3   
        0       0.0           0.0           0.00043061    0.0       
        1       0.0           0.0           0.00497982    0.0       
        2       0.00043912    0.01319656    0.0           0.0       
        3       0.0           0.0           0.0           0.0       
   IrrepBlock ir(0)=0 ir(1)=0, SlowIdx blocks:    3   1
   Sizes in current block:        4       4       1       1   -- offsets:        0       0       3       1

 Block  [    i    j   3   1 ]
                      0             1             2             3   
        0       0.0           0.0           0.0           0.00043061
        1       0.0           0.0           0.0           0.00497982
        2       0.0           0.0           0.0           0.0       
        3       0.00043912    0.01319656    0.0           0.0       
   IrrepBlock ir(0)=0 ir(1)=0, SlowIdx blocks:    0   2
   Sizes in current block:        4       4       1       1   -- offsets:        0       0       0       2

 Block  [    i    j   0   2 ]
                      0             1             2             3   
        0       0.0           0.0           0.02076498    0.0       
        1       0.0           0.0           0.00043912    0.0       
        2       0.01462666    0.00043061    0.0           0.0       
        3       0.0           0.0           0.0           0.0       
   IrrepBlock ir(0)=0 ir(1)=0, SlowIdx blocks:    1   2
   Sizes in current block:        4       4       1       1   -- offsets:        0       0       1       2

 Block  [    i    j   1   2 ]
                      0             1             2             3   
        0       0.0           0.0           0.00043912    0.0       
        1       0.0           0.0           0.01319656    0.0       
        2       0.00043061    0.00497982    0.0           0.0       
        3       0.0           0.0           0.0           0.0       
   IrrepBlock ir(0)=0 ir(1)=0, SlowIdx blocks:    2   2
   Sizes in current block:        4       4       1       1   -- offsets:        0       0       2       2

 Block  [    i    j   2   2 ]
                      0             1             2             3   
        0       0.01331661    0.00031270    0.0           0.0       
        1       0.00031270    0.00676395    0.0           0.0       
        2       0.0           0.0           0.02492381    0.0       
        3       0.0           0.0           0.0           0.00668967
   IrrepBlock ir(0)=0 ir(1)=0, SlowIdx blocks:    3   2
   Sizes in current block:        4       4       1       1   -- offsets:        0       0       3       2

 Block  [    i    j   3   2 ]
                      0             1             2             3   
        0       0.0           0.0           0.0           0.0       
        1       0.0           0.0           0.0           0.0       
        2       0.0           0.0           0.0           0.00493763
        3       0.0           0.0           0.01329652    0.0       
   IrrepBlock ir(0)=0 ir(1)=0, SlowIdx blocks:    0   3
   Sizes in current block:        4       4       1       1   -- offsets:        0       0       0       3

 Block  [    i    j   0   3 ]
                      0             1             2             3   
        0       0.0           0.0           0.0           0.02076498
        1       0.0           0.0           0.0           0.00043912
        2       0.0           0.0           0.0           0.0       
        3       0.01462666    0.00043061    0.0           0.0       
   IrrepBlock ir(0)=0 ir(1)=0, SlowIdx blocks:    1   3
   Sizes in current block:        4       4       1       1   -- offsets:        0       0       1       3

 Block  [    i    j   1   3 ]
                      0             1             2             3   
        0       0.0           0.0           0.0           0.00043912
        1       0.0           0.0           0.0           0.01319656
        2       0.0           0.0           0.0           0.0       
        3       0.00043061    0.00497982    0.0           0.0       
   IrrepBlock ir(0)=0 ir(1)=0, SlowIdx blocks:    2   3
   Sizes in current block:        4       4       1       1   -- offsets:        0       0       2       3

 Block  [    i    j   2   3 ]
                      0             1             2             3   
        0       0.0           0.0           0.0           0.0       
        1       0.0           0.0           0.0           0.0       
        2       0.0           0.0           0.0           0.01329652
        3       0.0           0.0           0.00493763    0.0       
   IrrepBlock ir(0)=0 ir(1)=0, SlowIdx blocks:    3   3
   Sizes in current block:        4       4       1       1   -- offsets:        0       0       3       3

 Block  [    i    j   3   3 ]
                      0             1             2             3   
        0       0.01331661    0.00031270    0.0           0.0       
        1       0.00031270    0.00676395    0.0           0.0       
        2       0.0           0.0           0.00668967    0.0       
        3       0.0           0.0           0.0           0.02492381

 ===========================================
 FDiskTensor: load df_mp2-f12-xg::TF[mnij] range [0,4)x[0,4)x[0,4)x[0,4)  (nSeq = 1)
    FDiskTensor: load        0 (sz 2048)

 ===========================================
 Dump of tensor: df_mp2-f12-xg::TF[mnij]
 Properties: { rk: 4 dim: (4 x 4 x 4 x 4) sym:  irp : 0 }
 Provided Range = [0,4)x[0,4)x[0,4)x[0,4)
   IrrepBlock ir(0)=0 ir(1)=0, SlowIdx blocks:    0   0
   Sizes in current block:        4       4       1       1   -- offsets:        0       0       0       0

 Block  [    i    j   0   0 ]
                      0             1             2             3   
        0       0.50000000    0.0           0.0           0.0       
        1       0.0           0.0           0.0           0.0       
        2       0.0           0.0           0.0           0.0       
        3       0.0           0.0           0.0           0.0       
   IrrepBlock ir(0)=0 ir(1)=0, SlowIdx blocks:    1   0
   Sizes in current block:        4       4       1       1   -- offsets:        0       0       1       0

 Block  [    i    j   1   0 ]
                      0             1             2             3   
        0       0.0           0.12500000    0.0           0.0       
        1       0.37500000    0.0           0.0           0.0       
        2       0.0           0.0           0.0           0.0       
        3       0.0           0.0           0.0           0.0       
   IrrepBlock ir(0)=0 ir(1)=0, SlowIdx blocks:    2   0
   Sizes in current block:        4       4       1       1   -- offsets:        0       0       2       0

 Block  [    i    j   2   0 ]
                      0             1             2             3   
        0       0.0           0.0           0.12500000    0.0       
        1       0.0           0.0           0.0           0.0       
        2       0.37500000    0.0           0.0           0.0       
        3       0.0           0.0           0.0           0.0       
   IrrepBlock ir(0)=0 ir(1)=0, SlowIdx blocks:    3   0
   Sizes in current block:        4       4       1       1   -- offsets:        0       0       3       0

 Block  [    i    j   3   0 ]
                      0             1             2             3   
        0       0.0           0.0           0.0           0.12500000
        1       0.0           0.0           0.0           0.0       
        2       0.0           0.0           0.0           0.0       
        3       0.37500000    0.0           0.0           0.0       
   IrrepBlock ir(0)=0 ir(1)=0, SlowIdx blocks:    0   1
   Sizes in current block:        4       4       1       1   -- offsets:        0       0       0       1

 Block  [    i    j   0   1 ]
                      0             1             2             3   
        0       0.0           0.37500000    0.0           0.0       
        1       0.12500000    0.0           0.0           0.0       
        2       0.0           0.0           0.0           0.0       
        3       0.0           0.0           0.0           0.0       
   IrrepBlock ir(0)=0 ir(1)=0, SlowIdx blocks:    1   1
   Sizes in current block:        4       4       1       1   -- offsets:        0       0       1       1

 Block  [    i    j   1   1 ]
                      0             1             2             3   
        0       0.0           0.0           0.0           0.0       
        1       0.0           0.50000000    0.0           0.0       
        2       0.0           0.0           0.0           0.0       
        3       0.0           0.0           0.0           0.0       
   IrrepBlock ir(0)=0 ir(1)=0, SlowIdx blocks:    2   1
   Sizes in current block:        4       4       1       1   -- offsets:        0       0       2       1

 Block  [    i    j   2   1 ]
                      0             1             2             3   
        0       0.0           0.0           0.0           0.0       
        1       0.0           0.0           0.12500000    0.0       
        2       0.0           0.37500000    0.0           0.0       
        3       0.0           0.0           0.0           0.0       
   IrrepBlock ir(0)=0 ir(1)=0, SlowIdx blocks:    3   1
   Sizes in current block:        4       4       1       1   -- offsets:        0       0       3       1

 Block  [    i    j   3   1 ]
                      0             1             2             3   
        0       0.0           0.0           0.0           0.0       
        1       0.0           0.0           0.0           0.12500000
        2       0.0           0.0           0.0           0.0       
        3       0.0           0.37500000    0.0           0.0       
   IrrepBlock ir(0)=0 ir(1)=0, SlowIdx blocks:    0   2
   Sizes in current block:        4       4       1       1   -- offsets:        0       0       0       2

 Block  [    i    j   0   2 ]
                      0             1             2             3   
        0       0.0           0.0           0.37500000    0.0       
        1       0.0           0.0           0.0           0.0       
        2       0.12500000    0.0           0.0           0.0       
        3       0.0           0.0           0.0           0.0       
   IrrepBlock ir(0)=0 ir(1)=0, SlowIdx blocks:    1   2
   Sizes in current block:        4       4       1       1   -- offsets:        0       0       1       2

 Block  [    i    j   1   2 ]
                      0             1             2             3   
        0       0.0           0.0           0.0           0.0       
        1       0.0           0.0           0.37500000    0.0       
        2       0.0           0.12500000    0.0           0.0       
        3       0.0           0.0           0.0           0.0       
   IrrepBlock ir(0)=0 ir(1)=0, SlowIdx blocks:    2   2
   Sizes in current block:        4       4       1       1   -- offsets:        0       0       2       2

 Block  [    i    j   2   2 ]
                      0             1             2             3   
        0       0.0           0.0           0.0           0.0       
        1       0.0           0.0           0.0           0.0       
        2       0.0           0.0           0.50000000    0.0       
        3       0.0           0.0           0.0           0.0       
   IrrepBlock ir(0)=0 ir(1)=0, SlowIdx blocks:    3   2
   Sizes in current block:        4       4       1       1   -- offsets:        0       0       3       2

 Block  [    i    j   3   2 ]
                      0             1             2             3   
        0       0.0           0.0           0.0           0.0       
        1       0.0           0.0           0.0           0.0       
        2       0.0           0.0           0.0           0.12500000
        3       0.0           0.0           0.37500000    0.0       
   IrrepBlock ir(0)=0 ir(1)=0, SlowIdx blocks:    0   3
   Sizes in current block:        4       4       1       1   -- offsets:        0       0       0       3

 Block  [    i    j   0   3 ]
                      0             1             2             3   
        0       0.0           0.0           0.0           0.37500000
        1       0.0           0.0           0.0           0.0       
        2       0.0           0.0           0.0           0.0       
        3       0.12500000    0.0           0.0           0.0       
   IrrepBlock ir(0)=0 ir(1)=0, SlowIdx blocks:    1   3
   Sizes in current block:        4       4       1       1   -- offsets:        0       0       1       3

 Block  [    i    j   1   3 ]
                      0             1             2             3   
        0       0.0           0.0           0.0           0.0       
        1       0.0           0.0           0.0           0.37500000
        2       0.0           0.0           0.0           0.0       
        3       0.0           0.12500000    0.0           0.0       
   IrrepBlock ir(0)=0 ir(1)=0, SlowIdx blocks:    2   3
   Sizes in current block:        4       4       1       1   -- offsets:        0       0       2       3

 Block  [    i    j   2   3 ]
                      0             1             2             3   
        0       0.0           0.0           0.0           0.0       
        1       0.0           0.0           0.0           0.0       
        2       0.0           0.0           0.0           0.37500000
        3       0.0           0.0           0.12500000    0.0       
   IrrepBlock ir(0)=0 ir(1)=0, SlowIdx blocks:    3   3
   Sizes in current block:        4       4       1       1   -- offsets:        0       0       3       3

 Block  [    i    j   3   3 ]
                      0             1             2             3   
        0       0.0           0.0           0.0           0.0       
        1       0.0           0.0           0.0           0.0       
        2       0.0           0.0           0.0           0.0       
        3       0.0           0.0           0.0           0.50000000

 ===========================================
 ----------------------------------------------------
 - Printing Energies step by step               -----
 ----------------------------------------------------

  DF-MP2-F12 energy corrections:
  ==============================
  Approx.                                    Total
  DF-MP2-F12/(DX,FIX,NOZ):              0.000000000000
  DF-MP2-F12/(FIX,NOZ):                 0.228493261365

  DF-MP2-F12 correlation energies:
  ================================
  Approx.                                    Ecorr
  DF-MP2:                              -0.140903840161
  DF-MP2-F12/(DX,FIX,NOZ):             -0.140903840161
  DF-MP2-F12/(FIX,NOZ):                 0.087589421204

  Reference energy                   -621.433624050264
  MP2-F12 correlation energy            0.087589421204

 !MP2-F12 total energy               -621.346034629060
 ====================================================
 = F12-XG CALCULATIONS END ==========================
 ====================================================




 **********************************************************************************************************************************
 DATASETS  * FILE   NREC   LENGTH (MB)   RECORD NAMES
              1      18       28.89       500      610      700      900      950      970     1000      129      960     1100   
                                          VAR    BASINP    GEOM    SYMINP    ZMAT    AOBASIS   BASIS     P2S    ABASIS      S 
                                         1400     1410     1200     1210     1080     1600     1650     1700   
                                           T        V       H0       H01     AOSYM     SMH    MOLCAS    OPER   

              2       4        0.54       700     1000      520     2100   
                                         GEOM     BASIS   MCVARS     RHF  

 PROGRAMS   *        TOTAL   MP2-F12    DF-MP2     DF-HF       INT
 CPU TIMES  *        15.38     14.68      0.05      0.24      0.30
 REAL TIME  *        34.13 SEC
 DISK USED  *         3.89 GB
 **********************************************************************************************************************************

          DF-MP2           DF-HF
   -621.57452789   -621.43362405
 **********************************************************************************************************************************
 Molpro calculation terminated
